<?xml version="1.0" encoding="UTF-8"?>

<!-- generated on 10/27/19 09:22:09 by Eclipse SUMO GUI Version 1.3.1
<configuration xmlns:xsi="http://www.w3.org/2001/XMLSchema-instance" xsi:noNamespaceSchemaLocation="http://sumo.dlr.de/xsd/sumoConfiguration.xsd">

    <input>
        <net-file value="D:\SUMO\aquidneck-island\simulation\baseline_sim\../../aquidneck_island.net.xml"/>
        <route-files value="D:\SUMO\aquidneck-island\simulation\baseline_sim\baseline_sim_trips.xml"/>
    </input>

    <output>
        <tripinfo-output value="D:\SUMO\aquidneck-island\simulation\baseline_sim\output/baseline_tripinfo.xml"/>
    </output>

    <report>
        <error-log value="D:\SUMO\aquidneck-island\simulation\baseline_sim\simulation_errors.txt"/>
    </report>

</configuration>
-->

<tripinfos xmlns:xsi="http://www.w3.org/2001/XMLSchema-instance" xsi:noNamespaceSchemaLocation="http://sumo.dlr.de/xsd/tripinfo_file.xsd">
    <tripinfo id="391" depart="23.00" departLane="511366397_0" departPos="5.10" departSpeed="4.93" departDelay="-0.05" arrival="211.00" arrivalLane="329995330#4_1" arrivalPos="24.83" arrivalSpeed="9.82" duration="188.00" routeLength="1280.58" waitingTime="22.00" waitingCount="1" stopTime="0.00" timeLoss="46.41" rerouteNo="1" devices="tripinfo_391 routing_391" vType="DEFAULT_VEHTYPE" speedFactor="0.89" vaporized=""/>
    <tripinfo id="543" depart="54.00" departLane="-19359987_0" departPos="5.10" departSpeed="11.71" departDelay="-0.47" arrival="213.00" arrivalLane="19357991#2_0" arrivalPos="170.35" arrivalSpeed="8.37" duration="159.00" routeLength="1440.65" waitingTime="1.00" waitingCount="1" stopTime="0.00" timeLoss="33.93" rerouteNo="1" devices="tripinfo_543 routing_543" vType="DEFAULT_VEHTYPE" speedFactor="1.05" vaporized=""/>
    <tripinfo id="245" depart="11.00" departLane="19353318_0" departPos="5.10" departSpeed="12.10" departDelay="-0.12" arrival="217.00" arrivalLane="-19353264#0_0" arrivalPos="86.48" arrivalSpeed="11.02" duration="206.00" routeLength="1986.06" waitingTime="16.00" waitingCount="1" stopTime="0.00" timeLoss="38.61" rerouteNo="1" devices="tripinfo_245 routing_245" vType="DEFAULT_VEHTYPE" speedFactor="1.08" vaporized=""/>
    <tripinfo id="283" depart="2.00" departLane="19352058_0" departPos="5.10" departSpeed="10.49" departDelay="-0.83" arrival="220.00" arrivalLane="19357114#3_0" arrivalPos="125.59" arrivalSpeed="9.60" duration="218.00" routeLength="1624.28" waitingTime="39.00" waitingCount="1" stopTime="0.00" timeLoss="61.07" rerouteNo="1" devices="tripinfo_283 routing_283" vType="DEFAULT_VEHTYPE" speedFactor="0.94" vaporized=""/>
    <tripinfo id="519" depart="4.00" departLane="19355160#0_0" departPos="5.10" departSpeed="11.30" departDelay="-0.77" arrival="228.00" arrivalLane="-19356452#2_0" arrivalPos="92.05" arrivalSpeed="10.55" duration="224.00" routeLength="2290.30" waitingTime="0.00" waitingCount="0" stopTime="0.00" timeLoss="18.98" rerouteNo="1" devices="tripinfo_519 routing_519" vType="DEFAULT_VEHTYPE" speedFactor="1.01" vaporized=""/>
    <tripinfo id="571" depart="46.00" departLane="19357539#1_0" departPos="5.10" departSpeed="11.47" departDelay="-0.90" arrival="231.00" arrivalLane="19357114#3_0" arrivalPos="125.59" arrivalSpeed="10.50" duration="185.00" routeLength="1834.07" waitingTime="0.00" waitingCount="0" stopTime="0.00" timeLoss="22.09" rerouteNo="1" devices="tripinfo_571 routing_571" vType="DEFAULT_VEHTYPE" speedFactor="1.03" vaporized=""/>
    <tripinfo id="399" depart="106.00" departLane="-511366397_0" departPos="5.10" departSpeed="5.62" departDelay="-0.94" arrival="244.00" arrivalLane="19353333#2_1" arrivalPos="50.87" arrivalSpeed="10.81" duration="138.00" routeLength="895.85" waitingTime="23.00" waitingCount="1" stopTime="0.00" timeLoss="42.44" rerouteNo="1" devices="tripinfo_399 routing_399" vType="DEFAULT_VEHTYPE" speedFactor="1.01" vaporized=""/>
    <tripinfo id="567" depart="167.00" departLane="-19352037_0" departPos="5.10" departSpeed="13.10" departDelay="-0.76" arrival="277.00" arrivalLane="19357991#1_0" arrivalPos="101.31" arrivalSpeed="11.86" duration="110.00" routeLength="1193.57" waitingTime="0.00" waitingCount="0" stopTime="0.00" timeLoss="17.13" rerouteNo="1" devices="tripinfo_567 routing_567" vType="DEFAULT_VEHTYPE" speedFactor="1.17" vaporized=""/>
    <tripinfo id="508" depart="105.00" departLane="576756561#0_0" departPos="5.10" departSpeed="11.38" departDelay="-0.18" arrival="279.00" arrivalLane="19352131#9_1" arrivalPos="48.41" arrivalSpeed="10.34" duration="174.00" routeLength="1691.31" waitingTime="0.00" waitingCount="0" stopTime="0.00" timeLoss="21.79" rerouteNo="1" devices="tripinfo_508 routing_508" vType="DEFAULT_VEHTYPE" speedFactor="1.02" vaporized=""/>
    <tripinfo id="597" depart="70.00" departLane="19352037_0" departPos="5.10" departSpeed="11.08" departDelay="-0.72" arrival="283.00" arrivalLane="-19352131#5_1" arrivalPos="49.62" arrivalSpeed="10.77" duration="213.00" routeLength="2097.22" waitingTime="0.00" waitingCount="0" stopTime="0.00" timeLoss="19.95" rerouteNo="1" devices="tripinfo_597 routing_597" vType="DEFAULT_VEHTYPE" speedFactor="0.99" vaporized=""/>
    <tripinfo id="551" depart="76.00" departLane="-19356025#1_0" departPos="5.10" departSpeed="9.82" departDelay="-0.76" arrival="288.00" arrivalLane="-440717074#4_1" arrivalPos="104.00" arrivalSpeed="9.47" duration="212.00" routeLength="1667.75" waitingTime="23.00" waitingCount="1" stopTime="0.00" timeLoss="41.18" rerouteNo="1" devices="tripinfo_551 routing_551" vType="DEFAULT_VEHTYPE" speedFactor="0.88" vaporized=""/>
    <tripinfo id="367" depart="107.00" departLane="-19358499#1_1" departPos="5.10" departSpeed="10.90" departDelay="-0.93" arrival="296.00" arrivalLane="-19357839_0" arrivalPos="87.22" arrivalSpeed="10.22" duration="189.00" routeLength="1452.70" waitingTime="25.00" waitingCount="1" stopTime="0.00" timeLoss="52.52" rerouteNo="1" devices="tripinfo_367 routing_367" vType="DEFAULT_VEHTYPE" speedFactor="0.98" vaporized=""/>
    <tripinfo id="318" depart="150.00" departLane="511366397_0" departPos="5.10" departSpeed="6.29" departDelay="-0.40" arrival="297.00" arrivalLane="329995330#8_1" arrivalPos="24.23" arrivalSpeed="12.51" duration="147.00" routeLength="1433.11" waitingTime="0.00" waitingCount="0" stopTime="0.00" timeLoss="24.70" rerouteNo="1" devices="tripinfo_318 routing_318" vType="DEFAULT_VEHTYPE" speedFactor="1.13" vaporized=""/>
    <tripinfo id="647" depart="145.00" departLane="19358136#4_0" departPos="5.10" departSpeed="10.25" departDelay="-0.86" arrival="300.00" arrivalLane="-329995277#2_1" arrivalPos="69.27" arrivalSpeed="9.67" duration="155.00" routeLength="1295.58" waitingTime="2.00" waitingCount="1" stopTime="0.00" timeLoss="24.50" rerouteNo="1" devices="tripinfo_647 routing_647" vType="DEFAULT_VEHTYPE" speedFactor="0.92" vaporized=""/>
    <tripinfo id="223" depart="101.00" departLane="-19352058_0" departPos="5.10" departSpeed="12.95" departDelay="-0.43" arrival="303.00" arrivalLane="-19357991#1_0" arrivalPos="101.66" arrivalSpeed="12.65" duration="202.00" routeLength="1670.52" waitingTime="46.00" waitingCount="1" stopTime="0.00" timeLoss="70.75" rerouteNo="1" devices="tripinfo_223 routing_223" vType="DEFAULT_VEHTYPE" speedFactor="1.16" vaporized=""/>
    <tripinfo id="649" depart="159.00" departLane="-19360850#0_0" departPos="5.10" departSpeed="12.91" departDelay="-0.54" arrival="303.00" arrivalLane="19359517#0_1" arrivalPos="194.68" arrivalSpeed="12.58" duration="144.00" routeLength="1610.47" waitingTime="1.00" waitingCount="1" stopTime="0.00" timeLoss="16.39" rerouteNo="1" devices="tripinfo_649 routing_649" vType="DEFAULT_VEHTYPE" speedFactor="1.15" vaporized=""/>
    <tripinfo id="565" depart="153.00" departLane="19359987_0" departPos="5.10" departSpeed="13.18" departDelay="-0.62" arrival="315.00" arrivalLane="-19354933_0" arrivalPos="349.65" arrivalSpeed="12.78" duration="162.00" routeLength="1580.69" waitingTime="21.00" waitingCount="1" stopTime="0.00" timeLoss="39.66" rerouteNo="1" devices="tripinfo_565 routing_565" vType="DEFAULT_VEHTYPE" speedFactor="1.18" vaporized=""/>
    <tripinfo id="526" depart="37.00" departLane="19359987_0" departPos="5.10" departSpeed="9.58" departDelay="-0.70" arrival="319.00" arrivalLane="19353264#3_0" arrivalPos="46.83" arrivalSpeed="9.00" duration="282.00" routeLength="2129.81" waitingTime="27.00" waitingCount="1" stopTime="0.00" timeLoss="56.34" rerouteNo="1" devices="tripinfo_526 routing_526" vType="DEFAULT_VEHTYPE" speedFactor="0.86" vaporized=""/>
    <tripinfo id="88" depart="16.00" departLane="-19352058_0" departPos="5.10" departSpeed="11.52" departDelay="-0.72" arrival="330.00" arrivalLane="19357539#1_0" arrivalPos="239.69" arrivalSpeed="10.86" duration="314.00" routeLength="2602.33" waitingTime="47.00" waitingCount="3" stopTime="0.00" timeLoss="85.78" rerouteNo="1" devices="tripinfo_88 routing_88" vType="DEFAULT_VEHTYPE" speedFactor="1.03" vaporized=""/>
    <tripinfo id="618" depart="278.00" departLane="-19352285#7_1" departPos="5.10" departSpeed="12.77" departDelay="-0.44" arrival="339.00" arrivalLane="19354745#1_1" arrivalPos="5.01" arrivalSpeed="11.71" duration="61.00" routeLength="678.10" waitingTime="0.00" waitingCount="0" stopTime="0.00" timeLoss="6.94" rerouteNo="1" devices="tripinfo_618 routing_618" vType="DEFAULT_VEHTYPE" speedFactor="1.14" vaporized=""/>
    <tripinfo id="503" depart="200.00" departLane="19359987_0" departPos="5.10" departSpeed="10.70" departDelay="-0.43" arrival="344.00" arrivalLane="-19352131#10_1" arrivalPos="34.15" arrivalSpeed="10.14" duration="144.00" routeLength="1356.70" waitingTime="0.00" waitingCount="0" stopTime="0.00" timeLoss="15.58" rerouteNo="1" devices="tripinfo_503 routing_503" vType="DEFAULT_VEHTYPE" speedFactor="0.96" vaporized=""/>
    <tripinfo id="412" depart="19.00" departLane="-19355160#3_0" departPos="5.10" departSpeed="11.69" departDelay="-0.61" arrival="351.00" arrivalLane="-19351857#5_1" arrivalPos="7.04" arrivalSpeed="10.50" duration="332.00" routeLength="3555.99" waitingTime="0.00" waitingCount="0" stopTime="0.00" timeLoss="24.97" rerouteNo="1" devices="tripinfo_412 routing_412" vType="DEFAULT_VEHTYPE" speedFactor="1.05" vaporized=""/>
    <tripinfo id="111" depart="81.00" departLane="-511366397_0" departPos="5.10" departSpeed="5.21" departDelay="-0.63" arrival="358.00" arrivalLane="-19361189#2_0" arrivalPos="49.18" arrivalSpeed="10.27" duration="277.00" routeLength="2130.73" waitingTime="19.00" waitingCount="3" stopTime="0.00" timeLoss="54.21" rerouteNo="1" devices="tripinfo_111 routing_111" vType="DEFAULT_VEHTYPE" speedFactor="0.94" vaporized=""/>
    <tripinfo id="699" depart="259.00" departLane="-19354572#0_0" departPos="5.10" departSpeed="11.22" departDelay="-0.99" arrival="364.00" arrivalLane="-19356382#34_1" arrivalPos="51.22" arrivalSpeed="10.94" duration="105.00" routeLength="1010.06" waitingTime="0.00" waitingCount="0" stopTime="0.00" timeLoss="12.54" rerouteNo="1" devices="tripinfo_699 routing_699" vType="DEFAULT_VEHTYPE" speedFactor="1.00" vaporized=""/>
    <tripinfo id="546" depart="153.00" departLane="-19355160#0_0" departPos="5.10" departSpeed="10.41" departDelay="-0.28" arrival="371.00" arrivalLane="19354328_0" arrivalPos="144.90" arrivalSpeed="10.04" duration="218.00" routeLength="2047.25" waitingTime="0.00" waitingCount="0" stopTime="0.00" timeLoss="18.55" rerouteNo="1" devices="tripinfo_546 routing_546" vType="DEFAULT_VEHTYPE" speedFactor="0.93" vaporized=""/>
    <tripinfo id="370" depart="114.00" departLane="19352058_0" departPos="5.10" departSpeed="9.23" departDelay="-0.89" arrival="406.00" arrivalLane="329995330#6_1" arrivalPos="32.22" arrivalSpeed="9.09" duration="292.00" routeLength="2259.40" waitingTime="3.00" waitingCount="3" stopTime="0.00" timeLoss="40.81" rerouteNo="1" devices="tripinfo_370 routing_370" vType="DEFAULT_VEHTYPE" speedFactor="0.83" vaporized=""/>
    <tripinfo id="534" depart="240.00" departLane="19357539#1_0" departPos="5.10" departSpeed="13.07" departDelay="-0.79" arrival="407.00" arrivalLane="-19357968_0" arrivalPos="129.14" arrivalSpeed="11.84" duration="167.00" routeLength="1921.73" waitingTime="0.00" waitingCount="0" stopTime="0.00" timeLoss="17.68" rerouteNo="1" devices="tripinfo_534 routing_534" vType="DEFAULT_VEHTYPE" speedFactor="1.17" vaporized=""/>
    <tripinfo id="587" depart="73.00" departLane="-661061477#0_1" departPos="5.10" departSpeed="10.36" departDelay="-0.98" arrival="408.00" arrivalLane="19353264#0_0" arrivalPos="86.48" arrivalSpeed="9.35" duration="335.00" routeLength="2830.71" waitingTime="29.00" waitingCount="1" stopTime="0.00" timeLoss="58.49" rerouteNo="1" devices="tripinfo_587 routing_587" vType="DEFAULT_VEHTYPE" speedFactor="0.93" vaporized=""/>
    <tripinfo id="654" depart="302.00" departLane="-19353591#1_0" departPos="5.10" departSpeed="11.36" departDelay="-0.92" arrival="417.00" arrivalLane="661061473#0_1" arrivalPos="18.95" arrivalSpeed="10.91" duration="115.00" routeLength="1009.10" waitingTime="2.00" waitingCount="2" stopTime="0.00" timeLoss="23.56" rerouteNo="1" devices="tripinfo_654 routing_654" vType="DEFAULT_VEHTYPE" speedFactor="1.02" vaporized=""/>
    <tripinfo id="198" depart="36.00" departLane="-19352058_0" departPos="5.10" departSpeed="10.49" departDelay="-0.86" arrival="433.00" arrivalLane="19354574#0_0" arrivalPos="54.99" arrivalSpeed="9.65" duration="397.00" routeLength="3084.77" waitingTime="63.00" waitingCount="2" stopTime="0.00" timeLoss="100.23" rerouteNo="1" devices="tripinfo_198 routing_198" vType="DEFAULT_VEHTYPE" speedFactor="0.94" vaporized=""/>
    <tripinfo id="694" depart="108.00" departLane="-19358928_0" departPos="5.10" departSpeed="9.95" departDelay="-0.25" arrival="434.00" arrivalLane="19354792#0_1" arrivalPos="69.36" arrivalSpeed="8.81" duration="326.00" routeLength="2719.90" waitingTime="4.00" waitingCount="4" stopTime="0.00" timeLoss="49.33" rerouteNo="1" devices="tripinfo_694 routing_694" vType="DEFAULT_VEHTYPE" speedFactor="0.89" vaporized=""/>
    <tripinfo id="609" depart="284.00" departLane="-19357988_0" departPos="5.10" departSpeed="10.84" departDelay="-0.18" arrival="435.00" arrivalLane="-19356382#35_1" arrivalPos="4.71" arrivalSpeed="10.51" duration="151.00" routeLength="1399.19" waitingTime="0.00" waitingCount="0" stopTime="0.00" timeLoss="18.42" rerouteNo="1" devices="tripinfo_609 routing_609" vType="DEFAULT_VEHTYPE" speedFactor="0.97" vaporized=""/>
    <tripinfo id="333" depart="208.00" departLane="19353318_0" departPos="5.10" departSpeed="11.67" departDelay="-0.04" arrival="436.00" arrivalLane="19351859#2_0" arrivalPos="56.35" arrivalSpeed="11.09" duration="228.00" routeLength="2018.27" waitingTime="3.00" waitingCount="3" stopTime="0.00" timeLoss="49.53" rerouteNo="1" devices="tripinfo_333 routing_333" vType="DEFAULT_VEHTYPE" speedFactor="1.04" vaporized=""/>
    <tripinfo id="256" depart="202.00" departLane="-511366397_0" departPos="5.10" departSpeed="6.07" departDelay="-0.94" arrival="438.00" arrivalLane="-19350124_0" arrivalPos="51.79" arrivalSpeed="11.18" duration="236.00" routeLength="2276.64" waitingTime="0.00" waitingCount="0" stopTime="0.00" timeLoss="34.55" rerouteNo="1" devices="tripinfo_256 routing_256" vType="DEFAULT_VEHTYPE" speedFactor="1.09" vaporized=""/>
    <tripinfo id="661" depart="306.00" departLane="-19354956#1_1" departPos="5.10" departSpeed="9.86" departDelay="-0.30" arrival="451.00" arrivalLane="661061473#1_1" arrivalPos="17.50" arrivalSpeed="9.34" duration="145.00" routeLength="1150.60" waitingTime="3.00" waitingCount="3" stopTime="0.00" timeLoss="26.86" rerouteNo="1" devices="tripinfo_661 routing_661" vType="DEFAULT_VEHTYPE" speedFactor="0.88" vaporized=""/>
    <tripinfo id="165" depart="211.00" departLane="-19358499#1_1" departPos="5.10" departSpeed="12.16" departDelay="-0.05" arrival="455.00" arrivalLane="-19353092#6_0" arrivalPos="230.32" arrivalSpeed="12.04" duration="244.00" routeLength="2027.37" waitingTime="25.00" waitingCount="3" stopTime="0.00" timeLoss="75.03" rerouteNo="1" devices="tripinfo_165 routing_165" vType="DEFAULT_VEHTYPE" speedFactor="1.09" vaporized=""/>
    <tripinfo id="137" depart="179.00" departLane="-19358499#0_1" departPos="5.10" departSpeed="10.88" departDelay="-0.52" arrival="463.00" arrivalLane="19352285#12_1" arrivalPos="71.43" arrivalSpeed="9.95" duration="284.00" routeLength="2038.38" waitingTime="56.00" waitingCount="4" stopTime="0.00" timeLoss="94.82" rerouteNo="1" devices="tripinfo_137 routing_137" vType="DEFAULT_VEHTYPE" speedFactor="0.97" vaporized=""/>
    <tripinfo id="362" depart="225.00" departLane="-19358499#0_1" departPos="5.10" departSpeed="8.46" departDelay="0.93" arrival="473.00" arrivalLane="19352126#0_0" arrivalPos="27.77" arrivalSpeed="8.40" duration="248.00" routeLength="1159.64" waitingTime="98.00" waitingCount="2" stopTime="0.00" timeLoss="122.70" rerouteNo="1" devices="tripinfo_362 routing_362" vType="DEFAULT_VEHTYPE" speedFactor="0.85" vaporized=""/>
    <tripinfo id="142" depart="39.00" departLane="19355636_0" departPos="5.10" departSpeed="12.19" departDelay="-0.03" arrival="478.00" arrivalLane="-19358927#4_0" arrivalPos="71.23" arrivalSpeed="12.08" duration="439.00" routeLength="3800.21" waitingTime="41.00" waitingCount="3" stopTime="0.00" timeLoss="124.15" rerouteNo="1" devices="tripinfo_142 routing_142" vType="DEFAULT_VEHTYPE" speedFactor="1.09" vaporized=""/>
    <tripinfo id="511" depart="243.00" departLane="19357539#1_0" departPos="5.10" departSpeed="11.37" departDelay="-0.94" arrival="478.00" arrivalLane="-19357057#5_0" arrivalPos="92.53" arrivalSpeed="10.36" duration="235.00" routeLength="2015.52" waitingTime="35.00" waitingCount="1" stopTime="0.00" timeLoss="55.91" rerouteNo="1" devices="tripinfo_511 routing_511" vType="DEFAULT_VEHTYPE" speedFactor="1.02" vaporized=""/>
    <tripinfo id="63" depart="0.00" departLane="-19358499#1_1" departPos="5.10" departSpeed="11.85" departDelay="-0.79" arrival="479.00" arrivalLane="19352037_0" arrivalPos="416.55" arrivalSpeed="11.84" duration="479.00" routeLength="3134.60" waitingTime="170.00" waitingCount="4" stopTime="0.00" timeLoss="213.84" rerouteNo="1" devices="tripinfo_63 routing_63" vType="DEFAULT_VEHTYPE" speedFactor="1.06" vaporized=""/>
    <tripinfo id="264" depart="222.00" departLane="19355636_0" departPos="5.10" departSpeed="9.80" departDelay="-0.36" arrival="486.00" arrivalLane="19352131#10_1" arrivalPos="34.15" arrivalSpeed="9.24" duration="264.00" routeLength="2051.79" waitingTime="17.00" waitingCount="2" stopTime="0.00" timeLoss="51.01" rerouteNo="1" devices="tripinfo_264 routing_264" vType="DEFAULT_VEHTYPE" speedFactor="0.88" vaporized=""/>
    <tripinfo id="502" depart="272.00" departLane="-19355160#3_0" departPos="5.10" departSpeed="10.05" departDelay="-0.92" arrival="489.00" arrivalLane="-19357057#4_0" arrivalPos="43.74" arrivalSpeed="9.92" duration="217.00" routeLength="1933.19" waitingTime="0.00" waitingCount="0" stopTime="0.00" timeLoss="21.93" rerouteNo="1" devices="tripinfo_502 routing_502" vType="DEFAULT_VEHTYPE" speedFactor="0.90" vaporized=""/>
    <tripinfo id="9" depart="18.00" departLane="-19352058_0" departPos="5.10" departSpeed="9.29" departDelay="-0.39" arrival="500.00" arrivalLane="-19356025#1_0" arrivalPos="443.61" arrivalSpeed="9.26" duration="482.00" routeLength="3162.40" waitingTime="90.00" waitingCount="3" stopTime="0.00" timeLoss="137.21" rerouteNo="1" devices="tripinfo_9 routing_9" vType="DEFAULT_VEHTYPE" speedFactor="0.83" vaporized=""/>
    <tripinfo id="343" depart="327.00" departLane="19358499#0_1" departPos="5.10" departSpeed="10.51" departDelay="-0.86" arrival="505.00" arrivalLane="329995319#1_1" arrivalPos="4.11" arrivalSpeed="10.18" duration="178.00" routeLength="1535.59" waitingTime="3.00" waitingCount="1" stopTime="0.00" timeLoss="29.82" rerouteNo="1" devices="tripinfo_343 routing_343" vType="DEFAULT_VEHTYPE" speedFactor="0.94" vaporized=""/>
    <tripinfo id="378" depart="187.00" departLane="19353318_0" departPos="5.10" departSpeed="10.07" departDelay="-0.53" arrival="506.00" arrivalLane="-329995330#6_1" arrivalPos="32.15" arrivalSpeed="9.09" duration="319.00" routeLength="2554.50" waitingTime="5.00" waitingCount="5" stopTime="0.00" timeLoss="59.31" rerouteNo="1" devices="tripinfo_378 routing_378" vType="DEFAULT_VEHTYPE" speedFactor="0.90" vaporized=""/>
    <tripinfo id="418" depart="77.00" departLane="-576756561#0_0" departPos="5.10" departSpeed="10.52" departDelay="-0.89" arrival="509.00" arrivalLane="19352770_0" arrivalPos="143.12" arrivalSpeed="10.01" duration="432.00" routeLength="4120.64" waitingTime="0.00" waitingCount="0" stopTime="0.00" timeLoss="35.60" rerouteNo="1" devices="tripinfo_418 routing_418" vType="DEFAULT_VEHTYPE" speedFactor="0.94" vaporized=""/>
    <tripinfo id="92" depart="169.00" departLane="-19358499#0_1" departPos="5.10" departSpeed="11.12" departDelay="-0.75" arrival="516.00" arrivalLane="19359987_0" arrivalPos="174.26" arrivalSpeed="9.84" duration="347.00" routeLength="2711.12" waitingTime="54.00" waitingCount="3" stopTime="0.00" timeLoss="102.86" rerouteNo="1" devices="tripinfo_92 routing_92" vType="DEFAULT_VEHTYPE" speedFactor="0.99" vaporized=""/>
    <tripinfo id="667" depart="389.00" departLane="19358587#0_1" departPos="5.10" departSpeed="11.66" departDelay="-0.08" arrival="531.00" arrivalLane="-19353551#10_1" arrivalPos="41.99" arrivalSpeed="11.24" duration="142.00" routeLength="1317.14" waitingTime="2.00" waitingCount="2" stopTime="0.00" timeLoss="26.19" rerouteNo="1" devices="tripinfo_667 routing_667" vType="DEFAULT_VEHTYPE" speedFactor="1.04" vaporized=""/>
    <tripinfo id="197" depart="292.00" departLane="-19353318_0" departPos="5.10" departSpeed="12.10" departDelay="-0.21" arrival="532.00" arrivalLane="-19356535#8_0" arrivalPos="156.23" arrivalSpeed="11.01" duration="240.00" routeLength="2348.13" waitingTime="1.00" waitingCount="1" stopTime="0.00" timeLoss="42.82" rerouteNo="1" devices="tripinfo_197 routing_197" vType="DEFAULT_VEHTYPE" speedFactor="1.08" vaporized=""/>
    <tripinfo id="147" depart="214.00" departLane="19355636_0" departPos="5.10" departSpeed="10.07" departDelay="-0.16" arrival="548.00" arrivalLane="19360353#2_0" arrivalPos="47.03" arrivalSpeed="9.42" duration="334.00" routeLength="2795.36" waitingTime="5.00" waitingCount="3" stopTime="0.00" timeLoss="50.31" rerouteNo="1" devices="tripinfo_147 routing_147" vType="DEFAULT_VEHTYPE" speedFactor="0.90" vaporized=""/>
    <tripinfo id="547" depart="302.00" departLane="19352037_0" departPos="5.10" departSpeed="11.03" departDelay="-0.97" arrival="548.00" arrivalLane="19352901#1_0" arrivalPos="127.66" arrivalSpeed="10.24" duration="246.00" routeLength="2335.17" waitingTime="0.00" waitingCount="0" stopTime="0.00" timeLoss="30.90" rerouteNo="1" devices="tripinfo_547 routing_547" vType="DEFAULT_VEHTYPE" speedFactor="0.99" vaporized=""/>
    <tripinfo id="593" depart="335.00" departLane="19352037_0" departPos="5.10" departSpeed="11.80" departDelay="-0.03" arrival="557.00" arrivalLane="-19357968_0" arrivalPos="129.14" arrivalSpeed="11.31" duration="222.00" routeLength="2347.31" waitingTime="0.00" waitingCount="0" stopTime="0.00" timeLoss="19.56" rerouteNo="1" devices="tripinfo_593 routing_593" vType="DEFAULT_VEHTYPE" speedFactor="1.06" vaporized=""/>
    <tripinfo id="561" depart="342.00" departLane="19352037_0" departPos="5.10" departSpeed="11.54" departDelay="-0.66" arrival="559.00" arrivalLane="19350124_0" arrivalPos="51.79" arrivalSpeed="10.66" duration="217.00" routeLength="2172.24" waitingTime="0.00" waitingCount="0" stopTime="0.00" timeLoss="25.07" rerouteNo="1" devices="tripinfo_561 routing_561" vType="DEFAULT_VEHTYPE" speedFactor="1.03" vaporized=""/>
    <tripinfo id="268" depart="305.00" departLane="-19355636_0" departPos="5.10" departSpeed="10.48" departDelay="-0.15" arrival="563.00" arrivalLane="19353264#5_0" arrivalPos="78.76" arrivalSpeed="9.89" duration="258.00" routeLength="1869.89" waitingTime="45.00" waitingCount="3" stopTime="0.00" timeLoss="77.09" rerouteNo="1" devices="tripinfo_268 routing_268" vType="DEFAULT_VEHTYPE" speedFactor="0.94" vaporized=""/>
    <tripinfo id="129" depart="116.00" departLane="19358499#0_1" departPos="5.10" departSpeed="9.76" departDelay="-0.59" arrival="567.00" arrivalLane="19358928_0" arrivalPos="80.64" arrivalSpeed="9.14" duration="451.00" routeLength="3623.00" waitingTime="26.00" waitingCount="1" stopTime="0.00" timeLoss="73.53" rerouteNo="1" devices="tripinfo_129 routing_129" vType="DEFAULT_VEHTYPE" speedFactor="0.87" vaporized=""/>
    <tripinfo id="656" depart="441.00" departLane="-19361189#3_0" departPos="5.10" departSpeed="10.70" departDelay="-0.70" arrival="567.00" arrivalLane="19354772_1" arrivalPos="94.99" arrivalSpeed="9.73" duration="126.00" routeLength="1090.29" waitingTime="3.00" waitingCount="1" stopTime="0.00" timeLoss="21.07" rerouteNo="1" devices="tripinfo_656 routing_656" vType="DEFAULT_VEHTYPE" speedFactor="0.96" vaporized=""/>
    <tripinfo id="106" depart="196.00" departLane="19358499#0_1" departPos="5.10" departSpeed="11.52" departDelay="-0.41" arrival="570.00" arrivalLane="-19352285#14_1" arrivalPos="53.24" arrivalSpeed="10.24" duration="374.00" routeLength="3056.17" waitingTime="50.00" waitingCount="3" stopTime="0.00" timeLoss="104.61" rerouteNo="1" devices="tripinfo_106 routing_106" vType="DEFAULT_VEHTYPE" speedFactor="1.03" vaporized=""/>
    <tripinfo id="582" depart="340.00" departLane="19355160#3_0" departPos="5.10" departSpeed="11.01" departDelay="-0.80" arrival="570.00" arrivalLane="-19353816#2_0" arrivalPos="133.40" arrivalSpeed="10.30" duration="230.00" routeLength="2214.23" waitingTime="0.00" waitingCount="0" stopTime="0.00" timeLoss="25.12" rerouteNo="1" devices="tripinfo_582 routing_582" vType="DEFAULT_VEHTYPE" speedFactor="0.98" vaporized=""/>
    <tripinfo id="457" depart="182.00" departLane="19357539#0_0" departPos="5.10" departSpeed="13.19" departDelay="-0.42" arrival="571.00" arrivalLane="19361005#0_0" arrivalPos="121.74" arrivalSpeed="12.55" duration="389.00" routeLength="4031.71" waitingTime="0.00" waitingCount="0" stopTime="0.00" timeLoss="81.10" rerouteNo="1" devices="tripinfo_457 routing_457" vType="DEFAULT_VEHTYPE" speedFactor="1.18" vaporized=""/>
    <tripinfo id="356" depart="280.00" departLane="19353318_0" departPos="5.10" departSpeed="11.44" departDelay="-0.53" arrival="571.00" arrivalLane="-19356054_0" arrivalPos="65.01" arrivalSpeed="11.40" duration="291.00" routeLength="2749.14" waitingTime="3.00" waitingCount="3" stopTime="0.00" timeLoss="45.25" rerouteNo="1" devices="tripinfo_356 routing_356" vType="DEFAULT_VEHTYPE" speedFactor="1.02" vaporized=""/>
    <tripinfo id="260" depart="312.00" departLane="-19358499#0_1" departPos="5.10" departSpeed="10.14" departDelay="-0.98" arrival="571.00" arrivalLane="19357057#4_0" arrivalPos="43.74" arrivalSpeed="10.09" duration="259.00" routeLength="1500.62" waitingTime="81.00" waitingCount="3" stopTime="0.00" timeLoss="110.75" rerouteNo="1" devices="tripinfo_260 routing_260" vType="DEFAULT_VEHTYPE" speedFactor="0.91" vaporized=""/>
    <tripinfo id="648" depart="395.00" departLane="19358587#0_1" departPos="5.10" departSpeed="11.26" departDelay="-0.17" arrival="581.00" arrivalLane="19354772_1" arrivalPos="94.99" arrivalSpeed="10.98" duration="186.00" routeLength="1779.95" waitingTime="0.00" waitingCount="0" stopTime="0.00" timeLoss="24.32" rerouteNo="1" devices="tripinfo_648 routing_648" vType="DEFAULT_VEHTYPE" speedFactor="1.01" vaporized=""/>
    <tripinfo id="691" depart="395.00" departLane="-19358136#3_0" departPos="5.10" departSpeed="11.43" departDelay="-0.23" arrival="588.00" arrivalLane="-19353686#7_1" arrivalPos="25.29" arrivalSpeed="11.05" duration="193.00" routeLength="1691.92" waitingTime="2.00" waitingCount="2" stopTime="0.00" timeLoss="40.35" rerouteNo="1" devices="tripinfo_691 routing_691" vType="DEFAULT_VEHTYPE" speedFactor="1.02" vaporized=""/>
    <tripinfo id="326" depart="320.00" departLane="-19358499#0_1" departPos="5.10" departSpeed="11.63" departDelay="-0.66" arrival="592.00" arrivalLane="19358324_0" arrivalPos="92.56" arrivalSpeed="11.02" duration="272.00" routeLength="1653.33" waitingTime="96.00" waitingCount="2" stopTime="0.00" timeLoss="126.57" rerouteNo="1" devices="tripinfo_326 routing_326" vType="DEFAULT_VEHTYPE" speedFactor="1.04" vaporized=""/>
    <tripinfo id="369" depart="340.00" departLane="-19358499#1_1" departPos="5.10" departSpeed="10.68" departDelay="-0.73" arrival="596.00" arrivalLane="-19354183#1_0" arrivalPos="14.66" arrivalSpeed="7.47" duration="256.00" routeLength="1660.95" waitingTime="61.00" waitingCount="2" stopTime="0.00" timeLoss="95.18" rerouteNo="1" devices="tripinfo_369 routing_369" vType="DEFAULT_VEHTYPE" speedFactor="0.96" vaporized=""/>
    <tripinfo id="62" depart="207.00" departLane="19355636_0" departPos="5.10" departSpeed="11.60" departDelay="-0.72" arrival="600.00" arrivalLane="576756561#0_0" arrivalPos="90.89" arrivalSpeed="11.56" duration="393.00" routeLength="2958.81" waitingTime="95.00" waitingCount="4" stopTime="0.00" timeLoss="135.04" rerouteNo="1" devices="tripinfo_62 routing_62" vType="DEFAULT_VEHTYPE" speedFactor="1.04" vaporized=""/>
    <tripinfo id="5" depart="55.00" departLane="19358499#1_1" departPos="5.10" departSpeed="12.55" departDelay="-0.65" arrival="605.00" arrivalLane="-19352037_0" arrivalPos="416.63" arrivalSpeed="12.55" duration="550.00" routeLength="4100.12" waitingTime="160.00" waitingCount="4" stopTime="0.00" timeLoss="221.21" rerouteNo="1" devices="tripinfo_5 routing_5" vType="DEFAULT_VEHTYPE" speedFactor="1.12" vaporized=""/>