<?xml version="1.0" encoding="UTF-8"?>

<!-- generated on 11/11/19 12:00:35 by Eclipse SUMO GUI Version 1.3.1
<configuration xmlns:xsi="http://www.w3.org/2001/XMLSchema-instance" xsi:noNamespaceSchemaLocation="http://sumo.dlr.de/xsd/sumoConfiguration.xsd">

    <input>
        <net-file value="D:\SUMO\aquidneck-island\simulation\baseline_sim\../../aquidneck_island.net.xml"/>
        <route-files value="D:\SUMO\aquidneck-island\simulation\baseline_sim\baseline_sim_trips.xml"/>
    </input>

    <output>
        <tripinfo-output value="D:\SUMO\aquidneck-island\simulation\baseline_sim\output/baseline_tripinfo.xml"/>
    </output>

    <report>
        <error-log value="D:\SUMO\aquidneck-island\simulation\baseline_sim\simulation_errors.txt"/>
    </report>

</configuration>
-->

<tripinfos xmlns:xsi="http://www.w3.org/2001/XMLSchema-instance" xsi:noNamespaceSchemaLocation="http://sumo.dlr.de/xsd/tripinfo_file.xsd">
    <tripinfo id="1577" depart="7.00" departLane="19354435#7_1" departPos="5.10" departSpeed="11.30" departDelay="-0.20" arrival="203.00" arrivalLane="19354242#1_1" arrivalPos="28.22" arrivalSpeed="11.16" duration="196.00" routeLength="1660.58" waitingTime="6.00" waitingCount="6" stopTime="0.00" timeLoss="45.68" rerouteNo="1" devices="tripinfo_1577 routing_1577" vType="DEFAULT_VEHTYPE" speedFactor="1.01" vaporized=""/>
    <tripinfo id="562" depart="55.00" departLane="19357539#0_0" departPos="5.10" departSpeed="10.90" departDelay="-0.46" arrival="213.00" arrivalLane="-19356452#2_0" arrivalPos="92.05" arrivalSpeed="10.55" duration="158.00" routeLength="1482.67" waitingTime="2.00" waitingCount="2" stopTime="0.00" timeLoss="20.34" rerouteNo="1" devices="tripinfo_562 routing_562" vType="DEFAULT_VEHTYPE" speedFactor="0.98" vaporized=""/>
    <tripinfo id="616" depart="126.00" departLane="-19354572#0_1" departPos="5.10" departSpeed="11.44" departDelay="-0.58" arrival="226.00" arrivalLane="19353551#9_1" arrivalPos="3.02" arrivalSpeed="7.63" duration="100.00" routeLength="829.71" waitingTime="3.00" waitingCount="3" stopTime="0.00" timeLoss="24.65" rerouteNo="1" devices="tripinfo_616 routing_616" vType="DEFAULT_VEHTYPE" speedFactor="1.02" vaporized=""/>
    <tripinfo id="526" depart="9.00" departLane="19359987_0" departPos="5.10" departSpeed="12.10" departDelay="-0.19" arrival="234.00" arrivalLane="19353264#0_0" arrivalPos="85.96" arrivalSpeed="11.94" duration="225.00" routeLength="2282.61" waitingTime="3.00" waitingCount="3" stopTime="0.00" timeLoss="34.41" rerouteNo="1" devices="tripinfo_526 routing_526" vType="DEFAULT_VEHTYPE" speedFactor="1.08" vaporized=""/>
    <tripinfo id="697" depart="38.00" departLane="-19353961#1_0" departPos="5.10" departSpeed="9.82" departDelay="-0.08" arrival="248.00" arrivalLane="278433716#6_1" arrivalPos="7.13" arrivalSpeed="9.77" duration="210.00" routeLength="1615.34" waitingTime="10.00" waitingCount="4" stopTime="0.00" timeLoss="43.56" rerouteNo="1" devices="tripinfo_697 routing_697" vType="DEFAULT_VEHTYPE" speedFactor="0.88" vaporized=""/>
    <tripinfo id="298" depart="67.00" departLane="-19352058_0" departPos="5.10" departSpeed="12.65" departDelay="-0.36" arrival="248.00" arrivalLane="19357968_0" arrivalPos="129.09" arrivalSpeed="11.57" duration="181.00" routeLength="1394.71" waitingTime="40.00" waitingCount="2" stopTime="0.00" timeLoss="68.88" rerouteNo="1" devices="tripinfo_298 routing_298" vType="DEFAULT_VEHTYPE" speedFactor="1.13" vaporized=""/>
    <tripinfo id="517" depart="28.00" departLane="-19356025#1_1" departPos="5.10" departSpeed="11.47" departDelay="-0.62" arrival="251.00" arrivalLane="-19357991#2_0" arrivalPos="170.34" arrivalSpeed="10.60" duration="223.00" routeLength="2201.24" waitingTime="4.00" waitingCount="2" stopTime="0.00" timeLoss="28.91" rerouteNo="1" devices="tripinfo_517 routing_517" vType="DEFAULT_VEHTYPE" speedFactor="1.03" vaporized=""/>
    <tripinfo id="1526" depart="78.00" departLane="445937781#2_1" departPos="5.10" departSpeed="11.12" departDelay="-0.30" arrival="275.00" arrivalLane="19359966#0_0" arrivalPos="44.32" arrivalSpeed="10.26" duration="197.00" routeLength="1377.22" waitingTime="16.00" waitingCount="6" stopTime="0.00" timeLoss="69.13" rerouteNo="1" devices="tripinfo_1526 routing_1526" vType="DEFAULT_VEHTYPE" speedFactor="0.99" vaporized=""/>
    <tripinfo id="217" depart="27.00" departLane="19352058_0" departPos="5.10" departSpeed="12.19" departDelay="-0.21" arrival="277.00" arrivalLane="-19353816#2_0" arrivalPos="133.40" arrivalSpeed="10.98" duration="250.00" routeLength="1797.59" waitingTime="65.00" waitingCount="3" stopTime="0.00" timeLoss="99.80" rerouteNo="1" devices="tripinfo_217 routing_217" vType="DEFAULT_VEHTYPE" speedFactor="1.09" vaporized=""/>
    <tripinfo id="342" depart="121.00" departLane="-19358499#1_1" departPos="5.10" departSpeed="12.77" departDelay="-0.13" arrival="282.00" arrivalLane="-19353333#1_1" arrivalPos="55.77" arrivalSpeed="12.26" duration="161.00" routeLength="1334.33" waitingTime="19.00" waitingCount="3" stopTime="0.00" timeLoss="55.15" rerouteNo="1" devices="tripinfo_342 routing_342" vType="DEFAULT_VEHTYPE" speedFactor="1.14" vaporized=""/>
    <tripinfo id="621" depart="131.00" departLane="19351857#3_1" departPos="5.10" departSpeed="12.10" departDelay="-0.21" arrival="285.00" arrivalLane="329995277#2_1" arrivalPos="69.27" arrivalSpeed="11.31" duration="154.00" routeLength="1387.35" waitingTime="5.00" waitingCount="5" stopTime="0.00" timeLoss="37.86" rerouteNo="1" devices="tripinfo_621 routing_621" vType="DEFAULT_VEHTYPE" speedFactor="1.08" vaporized=""/>
    <tripinfo id="326" depart="52.00" departLane="19358499#0_1" departPos="5.10" departSpeed="11.29" departDelay="-0.70" arrival="286.00" arrivalLane="-329995329_0" arrivalPos="94.58" arrivalSpeed="10.97" duration="234.00" routeLength="2178.22" waitingTime="13.00" waitingCount="2" stopTime="0.00" timeLoss="40.13" rerouteNo="1" devices="tripinfo_326 routing_326" vType="DEFAULT_VEHTYPE" speedFactor="1.01" vaporized=""/>
    <tripinfo id="263" depart="157.00" departLane="-19353318_0" departPos="5.10" departSpeed="10.51" departDelay="-0.13" arrival="292.00" arrivalLane="19357057#5_1" arrivalPos="92.09" arrivalSpeed="9.48" duration="135.00" routeLength="1115.06" waitingTime="2.00" waitingCount="2" stopTime="0.00" timeLoss="26.70" rerouteNo="1" devices="tripinfo_263 routing_263" vType="DEFAULT_VEHTYPE" speedFactor="0.94" vaporized=""/>
    <tripinfo id="681" depart="85.00" departLane="-19361189#0_1" departPos="5.10" departSpeed="10.07" departDelay="-0.40" arrival="300.00" arrivalLane="19357550_1" arrivalPos="162.26" arrivalSpeed="9.98" duration="215.00" routeLength="1543.18" waitingTime="8.00" waitingCount="8" stopTime="0.00" timeLoss="57.72" rerouteNo="1" devices="tripinfo_681 routing_681" vType="DEFAULT_VEHTYPE" speedFactor="0.90" vaporized=""/>
    <tripinfo id="629" depart="128.00" departLane="19354908_0" departPos="5.10" departSpeed="10.84" departDelay="-0.53" arrival="302.00" arrivalLane="-19356382#34_1" arrivalPos="51.22" arrivalSpeed="10.58" duration="174.00" routeLength="1387.44" waitingTime="11.00" waitingCount="5" stopTime="0.00" timeLoss="42.71" rerouteNo="1" devices="tripinfo_629 routing_629" vType="DEFAULT_VEHTYPE" speedFactor="0.97" vaporized=""/>
    <tripinfo id="1097" depart="84.00" departLane="19360897#1_0" departPos="5.10" departSpeed="12.32" departDelay="-0.62" arrival="311.00" arrivalLane="-19352893#2_0" arrivalPos="65.34" arrivalSpeed="12.28" duration="227.00" routeLength="1978.08" waitingTime="14.00" waitingCount="8" stopTime="0.00" timeLoss="64.33" rerouteNo="1" devices="tripinfo_1097 routing_1097" vType="DEFAULT_VEHTYPE" speedFactor="1.10" vaporized=""/>
    <tripinfo id="211" depart="18.00" departLane="-19353318_0" departPos="5.10" departSpeed="10.49" departDelay="-0.45" arrival="312.00" arrivalLane="19358435_0" arrivalPos="138.57" arrivalSpeed="9.95" duration="294.00" routeLength="1987.00" waitingTime="71.00" waitingCount="2" stopTime="0.00" timeLoss="100.46" rerouteNo="1" devices="tripinfo_211 routing_211" vType="DEFAULT_VEHTYPE" speedFactor="0.94" vaporized=""/>
    <tripinfo id="579" depart="99.00" departLane="-19355160#3_0" departPos="5.10" departSpeed="11.15" departDelay="-0.35" arrival="323.00" arrivalLane="-440717074#4_1" arrivalPos="101.99" arrivalSpeed="10.58" duration="224.00" routeLength="1810.37" waitingTime="28.00" waitingCount="2" stopTime="0.00" timeLoss="59.91" rerouteNo="1" devices="tripinfo_579 routing_579" vType="DEFAULT_VEHTYPE" speedFactor="1.00" vaporized=""/>
    <tripinfo id="139" depart="31.00" departLane="-19352058_0" departPos="5.10" departSpeed="11.08" departDelay="-0.09" arrival="325.00" arrivalLane="19353092#5_1" arrivalPos="58.96" arrivalSpeed="10.13" duration="294.00" routeLength="2078.33" waitingTime="52.00" waitingCount="6" stopTime="0.00" timeLoss="101.56" rerouteNo="1" devices="tripinfo_139 routing_139" vType="DEFAULT_VEHTYPE" speedFactor="0.99" vaporized=""/>
    <tripinfo id="1092" depart="72.00" departLane="19360028_0" departPos="5.10" departSpeed="12.91" departDelay="-0.94" arrival="327.00" arrivalLane="19354349#2_0" arrivalPos="89.37" arrivalSpeed="12.69" duration="255.00" routeLength="2412.91" waitingTime="7.00" waitingCount="7" stopTime="0.00" timeLoss="64.46" rerouteNo="1" devices="tripinfo_1092 routing_1092" vType="DEFAULT_VEHTYPE" speedFactor="1.15" vaporized=""/>
    <tripinfo id="1549" depart="105.00" departLane="-19355169#1_0" departPos="5.10" departSpeed="9.51" departDelay="-0.10" arrival="330.00" arrivalLane="-19357073_0" arrivalPos="285.73" arrivalSpeed="9.47" duration="225.00" routeLength="1623.61" waitingTime="17.00" waitingCount="5" stopTime="0.00" timeLoss="51.98" rerouteNo="1" devices="tripinfo_1549 routing_1549" vType="DEFAULT_VEHTYPE" speedFactor="0.85" vaporized=""/>
    <tripinfo id="554" depart="96.00" departLane="661061477#0_0" departPos="5.10" departSpeed="11.67" departDelay="-0.85" arrival="332.00" arrivalLane="19352131#5_1" arrivalPos="49.62" arrivalSpeed="11.61" duration="236.00" routeLength="2424.74" waitingTime="0.00" waitingCount="0" stopTime="0.00" timeLoss="24.13" rerouteNo="1" devices="tripinfo_554 routing_554" vType="DEFAULT_VEHTYPE" speedFactor="1.04" vaporized=""/>
    <tripinfo id="385" depart="12.00" departLane="19353318_0" departPos="5.10" departSpeed="9.29" departDelay="-0.11" arrival="333.00" arrivalLane="19355585#1_0" arrivalPos="73.52" arrivalSpeed="8.84" duration="321.00" routeLength="2100.69" waitingTime="33.00" waitingCount="5" stopTime="0.00" timeLoss="87.63" rerouteNo="1" devices="tripinfo_385 routing_385" vType="DEFAULT_VEHTYPE" speedFactor="0.83" vaporized=""/>
    <tripinfo id="1375" depart="39.00" departLane="-346959932#1_0" departPos="5.10" departSpeed="12.95" departDelay="-0.56" arrival="337.00" arrivalLane="19359702_0" arrivalPos="92.57" arrivalSpeed="12.34" duration="298.00" routeLength="3076.97" waitingTime="25.00" waitingCount="8" stopTime="0.00" timeLoss="99.66" rerouteNo="1" devices="tripinfo_1375 routing_1375" vType="DEFAULT_VEHTYPE" speedFactor="1.16" vaporized=""/>
    <tripinfo id="311" depart="82.00" departLane="19352058_0" departPos="5.10" departSpeed="10.88" departDelay="-0.07" arrival="338.00" arrivalLane="19359239#0_0" arrivalPos="181.56" arrivalSpeed="9.67" duration="256.00" routeLength="1954.40" waitingTime="15.00" waitingCount="7" stopTime="0.00" timeLoss="70.45" rerouteNo="1" devices="tripinfo_311 routing_311" vType="DEFAULT_VEHTYPE" speedFactor="0.97" vaporized=""/>
    <tripinfo id="608" depart="194.00" departLane="-19354956#2_1" departPos="5.10" departSpeed="11.82" departDelay="-0.56" arrival="345.00" arrivalLane="19354745#1_1" arrivalPos="5.01" arrivalSpeed="11.51" duration="151.00" routeLength="1390.95" waitingTime="3.00" waitingCount="3" stopTime="0.00" timeLoss="29.69" rerouteNo="1" devices="tripinfo_608 routing_608" vType="DEFAULT_VEHTYPE" speedFactor="1.06" vaporized=""/>
    <tripinfo id="1274" depart="48.00" departLane="-19358005#0_0" departPos="5.10" departSpeed="11.38" departDelay="-0.22" arrival="350.00" arrivalLane="661061473#0_1" arrivalPos="18.95" arrivalSpeed="10.26" duration="302.00" routeLength="2379.18" waitingTime="34.00" waitingCount="6" stopTime="0.00" timeLoss="90.35" rerouteNo="1" devices="tripinfo_1274 routing_1274" vType="DEFAULT_VEHTYPE" speedFactor="1.02" vaporized=""/>
    <tripinfo id="297" depart="92.00" departLane="-19353318_0" departPos="5.10" departSpeed="11.60" departDelay="-0.29" arrival="356.00" arrivalLane="19357114#3_0" arrivalPos="125.59" arrivalSpeed="10.39" duration="264.00" routeLength="1660.95" waitingTime="93.00" waitingCount="2" stopTime="0.00" timeLoss="118.80" rerouteNo="1" devices="tripinfo_297 routing_297" vType="DEFAULT_VEHTYPE" speedFactor="1.04" vaporized=""/>
    <tripinfo id="317" depart="167.00" departLane="19358499#0_1" departPos="5.10" departSpeed="10.98" departDelay="-0.09" arrival="361.00" arrivalLane="-19355854#1_0" arrivalPos="90.69" arrivalSpeed="9.70" duration="194.00" routeLength="1742.15" waitingTime="2.00" waitingCount="2" stopTime="0.00" timeLoss="33.06" rerouteNo="1" devices="tripinfo_317 routing_317" vType="DEFAULT_VEHTYPE" speedFactor="0.98" vaporized=""/>
    <tripinfo id="296" depart="149.00" departLane="-19352058_0" departPos="5.10" departSpeed="11.63" departDelay="-0.31" arrival="375.00" arrivalLane="-19353816#2_0" arrivalPos="133.40" arrivalSpeed="10.93" duration="226.00" routeLength="1730.58" waitingTime="41.00" waitingCount="3" stopTime="0.00" timeLoss="73.89" rerouteNo="1" devices="tripinfo_296 routing_296" vType="DEFAULT_VEHTYPE" speedFactor="1.04" vaporized=""/>
    <tripinfo id="108" depart="83.00" departLane="19353318_0" departPos="5.10" departSpeed="13.19" departDelay="-0.43" arrival="380.00" arrivalLane="19360850#0_0" arrivalPos="111.31" arrivalSpeed="12.63" duration="297.00" routeLength="2938.69" waitingTime="6.00" waitingCount="6" stopTime="0.00" timeLoss="68.74" rerouteNo="1" devices="tripinfo_108 routing_108" vType="DEFAULT_VEHTYPE" speedFactor="1.18" vaporized=""/>
    <tripinfo id="1394" depart="67.00" departLane="-346959933_0" departPos="5.10" departSpeed="10.61" departDelay="-0.16" arrival="382.00" arrivalLane="586093472#0_1" arrivalPos="60.20" arrivalSpeed="10.30" duration="315.00" routeLength="3261.11" waitingTime="9.00" waitingCount="2" stopTime="0.00" timeLoss="56.24" rerouteNo="1" devices="tripinfo_1394 routing_1394" vType="DEFAULT_VEHTYPE" speedFactor="0.95" vaporized=""/>
    <tripinfo id="574" depart="219.00" departLane="19355160#3_0" departPos="5.10" departSpeed="11.90" departDelay="-0.57" arrival="382.00" arrivalLane="-19357114#3_0" arrivalPos="125.65" arrivalSpeed="11.03" duration="163.00" routeLength="1701.55" waitingTime="0.00" waitingCount="0" stopTime="0.00" timeLoss="17.21" rerouteNo="1" devices="tripinfo_574 routing_574" vType="DEFAULT_VEHTYPE" speedFactor="1.06" vaporized=""/>
    <tripinfo id="302" depart="75.00" departLane="-19352058_0" departPos="5.10" departSpeed="11.24" departDelay="-0.51" arrival="385.00" arrivalLane="329995319#0_1" arrivalPos="94.63" arrivalSpeed="10.41" duration="310.00" routeLength="1810.09" waitingTime="89.00" waitingCount="6" stopTime="0.00" timeLoss="145.02" rerouteNo="1" devices="tripinfo_302 routing_302" vType="DEFAULT_VEHTYPE" speedFactor="1.01" vaporized=""/>
    <tripinfo id="1479" depart="131.00" departLane="-19357397#3_1" departPos="5.10" departSpeed="12.51" departDelay="-0.95" arrival="385.00" arrivalLane="-19359753#1_1" arrivalPos="60.62" arrivalSpeed="11.65" duration="254.00" routeLength="2149.25" waitingTime="15.00" waitingCount="8" stopTime="0.00" timeLoss="78.81" rerouteNo="1" devices="tripinfo_1479 routing_1479" vType="DEFAULT_VEHTYPE" speedFactor="1.12" vaporized=""/>
    <tripinfo id="157" depart="89.00" departLane="19352058_0" departPos="5.10" departSpeed="12.21" departDelay="-0.81" arrival="390.00" arrivalLane="-19353810#0_1" arrivalPos="59.77" arrivalSpeed="12.04" duration="301.00" routeLength="2359.81" waitingTime="14.00" waitingCount="7" stopTime="0.00" timeLoss="101.52" rerouteNo="1" devices="tripinfo_157 routing_157" vType="DEFAULT_VEHTYPE" speedFactor="1.09" vaporized=""/>
    <tripinfo id="851" depart="11.00" departLane="19351910#1_0" departPos="5.10" departSpeed="11.52" departDelay="-0.96" arrival="400.00" arrivalLane="19352924#0_1" arrivalPos="57.81" arrivalSpeed="10.37" duration="389.00" routeLength="2511.00" waitingTime="120.00" waitingCount="6" stopTime="0.00" timeLoss="167.89" rerouteNo="1" devices="tripinfo_851 routing_851" vType="DEFAULT_VEHTYPE" speedFactor="1.03" vaporized=""/>
    <tripinfo id="337" depart="176.00" departLane="-19358499#1_1" departPos="5.10" departSpeed="10.81" departDelay="-0.57" arrival="402.00" arrivalLane="329995330#4_1" arrivalPos="24.83" arrivalSpeed="10.45" duration="226.00" routeLength="1571.94" waitingTime="47.00" waitingCount="4" stopTime="0.00" timeLoss="77.94" rerouteNo="1" devices="tripinfo_337 routing_337" vType="DEFAULT_VEHTYPE" speedFactor="0.97" vaporized=""/>
    <tripinfo id="571" depart="142.00" departLane="661061477#0_0" departPos="5.10" departSpeed="10.14" departDelay="-0.77" arrival="405.00" arrivalLane="19357114#2_0" arrivalPos="100.29" arrivalSpeed="9.45" duration="263.00" routeLength="2386.82" waitingTime="0.00" waitingCount="0" stopTime="0.00" timeLoss="24.10" rerouteNo="1" devices="tripinfo_571 routing_571" vType="DEFAULT_VEHTYPE" speedFactor="0.91" vaporized=""/>
    <tripinfo id="15" depart="154.00" departLane="-19352058_0" departPos="5.10" departSpeed="10.88" departDelay="-0.05" arrival="409.00" arrivalLane="19359987_0" arrivalPos="174.26" arrivalSpeed="9.86" duration="255.00" routeLength="2121.41" waitingTime="11.00" waitingCount="5" stopTime="0.00" timeLoss="57.63" rerouteNo="1" devices="tripinfo_15 routing_15" vType="DEFAULT_VEHTYPE" speedFactor="0.97" vaporized=""/>
    <tripinfo id="389" depart="89.00" departLane="19355636_0" departPos="5.10" departSpeed="10.70" departDelay="-0.06" arrival="422.00" arrivalLane="-19352449#0_1" arrivalPos="51.29" arrivalSpeed="9.58" duration="333.00" routeLength="1640.32" waitingTime="128.00" waitingCount="6" stopTime="0.00" timeLoss="175.47" rerouteNo="1" devices="tripinfo_389 routing_389" vType="DEFAULT_VEHTYPE" speedFactor="0.96" vaporized=""/>
    <tripinfo id="177" depart="141.00" departLane="-19353318_0" departPos="5.10" departSpeed="10.48" departDelay="-0.27" arrival="424.00" arrivalLane="19353591#0_1" arrivalPos="96.50" arrivalSpeed="9.80" duration="283.00" routeLength="2119.60" waitingTime="24.00" waitingCount="6" stopTime="0.00" timeLoss="75.56" rerouteNo="1" devices="tripinfo_177 routing_177" vType="DEFAULT_VEHTYPE" speedFactor="0.94" vaporized=""/>
    <tripinfo id="914" depart="38.00" departLane="-19359759#0_1" departPos="5.10" departSpeed="10.52" departDelay="-0.97" arrival="427.00" arrivalLane="-19354052_0" arrivalPos="57.86" arrivalSpeed="9.24" duration="389.00" routeLength="2872.08" waitingTime="53.00" waitingCount="7" stopTime="0.00" timeLoss="111.45" rerouteNo="1" devices="tripinfo_914 routing_914" vType="DEFAULT_VEHTYPE" speedFactor="0.94" vaporized=""/>
    <tripinfo id="1242" depart="15.00" departLane="346959936#0_0" departPos="5.10" departSpeed="9.91" departDelay="-0.85" arrival="431.00" arrivalLane="-329995277#2_1" arrivalPos="69.27" arrivalSpeed="9.56" duration="416.00" routeLength="3343.67" waitingTime="6.00" waitingCount="6" stopTime="0.00" timeLoss="72.72" rerouteNo="1" devices="tripinfo_1242 routing_1242" vType="DEFAULT_VEHTYPE" speedFactor="0.89" vaporized=""/>
    <tripinfo id="80" depart="42.00" departLane="-19353318_0" departPos="5.10" departSpeed="8.08" departDelay="4.78" arrival="434.00" arrivalLane="576756561#0_0" arrivalPos="88.89" arrivalSpeed="9.96" duration="392.00" routeLength="2809.11" waitingTime="75.00" waitingCount="4" stopTime="0.00" timeLoss="118.94" rerouteNo="1" devices="tripinfo_80 routing_80" vType="DEFAULT_VEHTYPE" speedFactor="0.93" vaporized=""/>
    <tripinfo id="699" depart="214.00" departLane="-19358927#5_0" departPos="5.10" departSpeed="11.34" departDelay="-0.34" arrival="438.00" arrivalLane="-19353551#7_1" arrivalPos="67.72" arrivalSpeed="11.11" duration="224.00" routeLength="1834.76" waitingTime="22.00" waitingCount="3" stopTime="0.00" timeLoss="60.55" rerouteNo="1" devices="tripinfo_699 routing_699" vType="DEFAULT_VEHTYPE" speedFactor="1.01" vaporized=""/>
    <tripinfo id="636" depart="189.00" departLane="19351856#1_0" departPos="5.10" departSpeed="9.32" departDelay="-0.81" arrival="439.00" arrivalLane="19353551#9_1" arrivalPos="3.02" arrivalSpeed="5.30" duration="250.00" routeLength="1451.28" waitingTime="55.00" waitingCount="5" stopTime="0.00" timeLoss="90.48" rerouteNo="1" devices="tripinfo_636 routing_636" vType="DEFAULT_VEHTYPE" speedFactor="0.83" vaporized=""/>
    <tripinfo id="205" depart="314.00" departLane="-19355636_0" departPos="5.10" departSpeed="13.18" departDelay="-0.15" arrival="439.00" arrivalLane="19357057#4_0" arrivalPos="43.74" arrivalSpeed="12.39" duration="125.00" routeLength="1042.19" waitingTime="11.00" waitingCount="4" stopTime="0.00" timeLoss="44.09" rerouteNo="1" devices="tripinfo_205 routing_205" vType="DEFAULT_VEHTYPE" speedFactor="1.18" vaporized=""/>
    <tripinfo id="987" depart="1.00" departLane="-19360339#1_1" departPos="5.10" departSpeed="11.85" departDelay="-0.33" arrival="442.00" arrivalLane="19361255#3_1" arrivalPos="57.93" arrivalSpeed="11.59" duration="441.00" routeLength="3371.12" waitingTime="68.00" waitingCount="13" stopTime="0.00" timeLoss="153.58" rerouteNo="1" devices="tripinfo_987 routing_987" vType="DEFAULT_VEHTYPE" speedFactor="1.06" vaporized=""/>
    <tripinfo id="391" depart="171.00" departLane="19352058_0" departPos="5.10" departSpeed="12.15" departDelay="-0.89" arrival="444.00" arrivalLane="19359199_1" arrivalPos="178.12" arrivalSpeed="11.94" duration="273.00" routeLength="2163.71" waitingTime="9.00" waitingCount="5" stopTime="0.00" timeLoss="90.46" rerouteNo="1" devices="tripinfo_391 routing_391" vType="DEFAULT_VEHTYPE" speedFactor="1.09" vaporized=""/>
    <tripinfo id="1436" depart="182.00" departLane="19355169#1_0" departPos="5.10" departSpeed="11.26" departDelay="-0.38" arrival="448.00" arrivalLane="19357385#6_1" arrivalPos="39.13" arrivalSpeed="10.61" duration="266.00" routeLength="1931.41" waitingTime="46.00" waitingCount="5" stopTime="0.00" timeLoss="89.11" rerouteNo="1" devices="tripinfo_1436 routing_1436" vType="DEFAULT_VEHTYPE" speedFactor="1.01" vaporized=""/>
    <tripinfo id="1543" depart="235.00" departLane="445937793_0" departPos="5.10" departSpeed="10.31" departDelay="-0.49" arrival="448.00" arrivalLane="-19355799#3_0" arrivalPos="53.61" arrivalSpeed="9.20" duration="213.00" routeLength="1151.06" waitingTime="63.00" waitingCount="5" stopTime="0.00" timeLoss="96.28" rerouteNo="1" devices="tripinfo_1543 routing_1543" vType="DEFAULT_VEHTYPE" speedFactor="0.92" vaporized=""/>
    <tripinfo id="585" depart="248.00" departLane="19356025#1_0" departPos="5.10" departSpeed="11.86" departDelay="-0.63" arrival="449.00" arrivalLane="19356432_0" arrivalPos="56.91" arrivalSpeed="10.68" duration="201.00" routeLength="2098.21" waitingTime="0.00" waitingCount="0" stopTime="0.00" timeLoss="21.93" rerouteNo="1" devices="tripinfo_585 routing_585" vType="DEFAULT_VEHTYPE" speedFactor="1.06" vaporized=""/>
    <tripinfo id="1251" depart="100.00" departLane="-19360523#4_0" departPos="5.10" departSpeed="9.80" departDelay="-0.11" arrival="456.00" arrivalLane="661061473#1_1" arrivalPos="17.50" arrivalSpeed="9.75" duration="356.00" routeLength="2875.19" waitingTime="7.00" waitingCount="3" stopTime="0.00" timeLoss="58.83" rerouteNo="1" devices="tripinfo_1251 routing_1251" vType="DEFAULT_VEHTYPE" speedFactor="0.88" vaporized=""/>
    <tripinfo id="1169" depart="81.00" departLane="-288107045#4_1" departPos="5.10" departSpeed="11.40" departDelay="-0.27" arrival="461.00" arrivalLane="19358099_0" arrivalPos="139.83" arrivalSpeed="10.64" duration="380.00" routeLength="2435.09" waitingTime="114.00" waitingCount="5" stopTime="0.00" timeLoss="163.90" rerouteNo="1" devices="tripinfo_1169 routing_1169" vType="DEFAULT_VEHTYPE" speedFactor="1.02" vaporized=""/>
    <tripinfo id="183" depart="159.00" departLane="19352058_0" departPos="5.10" departSpeed="11.80" departDelay="-0.35" arrival="466.00" arrivalLane="-19361189#1_1" arrivalPos="69.89" arrivalSpeed="11.40" duration="307.00" routeLength="2395.25" waitingTime="19.00" waitingCount="8" stopTime="0.00" timeLoss="99.20" rerouteNo="1" devices="tripinfo_183 routing_183" vType="DEFAULT_VEHTYPE" speedFactor="1.06" vaporized=""/>
    <tripinfo id="922" depart="71.00" departLane="-19356048#1_1" departPos="5.10" departSpeed="13.18" departDelay="-0.61" arrival="469.00" arrivalLane="19354437#1_1" arrivalPos="89.09" arrivalSpeed="12.24" duration="398.00" routeLength="3405.46" waitingTime="52.00" waitingCount="11" stopTime="0.00" timeLoss="136.96" rerouteNo="1" devices="tripinfo_922 routing_922" vType="DEFAULT_VEHTYPE" speedFactor="1.18" vaporized=""/>
    <tripinfo id="1390" depart="148.00" departLane="346959935#0_1" departPos="5.10" departSpeed="10.23" departDelay="-0.40" arrival="473.00" arrivalLane="19352621#2_1" arrivalPos="89.27" arrivalSpeed="9.73" duration="325.00" routeLength="3048.90" waitingTime="14.00" waitingCount="6" stopTime="0.00" timeLoss="77.39" rerouteNo="1" devices="tripinfo_1390 routing_1390" vType="DEFAULT_VEHTYPE" speedFactor="0.91" vaporized=""/>
    <tripinfo id="1090" depart="223.00" departLane="329995270#5_1" departPos="5.10" departSpeed="9.37" departDelay="1.03" arrival="474.00" arrivalLane="329995328#0_1" arrivalPos="41.09" arrivalSpeed="9.17" duration="251.00" routeLength="1945.83" waitingTime="6.00" waitingCount="6" stopTime="0.00" timeLoss="61.00" rerouteNo="1" devices="tripinfo_1090 routing_1090" vType="DEFAULT_VEHTYPE" speedFactor="0.93" vaporized=""/>
    <tripinfo id="196" depart="207.00" departLane="19352058_0" departPos="5.10" departSpeed="10.82" departDelay="-0.30" arrival="475.00" arrivalLane="-19353092#6_0" arrivalPos="229.92" arrivalSpeed="10.43" duration="268.00" routeLength="2256.49" waitingTime="17.00" waitingCount="3" stopTime="0.00" timeLoss="55.63" rerouteNo="1" devices="tripinfo_196 routing_196" vType="DEFAULT_VEHTYPE" speedFactor="0.97" vaporized=""/>
    <tripinfo id="439" depart="66.00" departLane="576756561#0_0" departPos="5.10" departSpeed="9.76" departDelay="-0.11" arrival="481.00" arrivalLane="-19353092#3_1" arrivalPos="108.93" arrivalSpeed="9.09" duration="415.00" routeLength="3395.35" waitingTime="6.00" waitingCount="6" stopTime="0.00" timeLoss="63.15" rerouteNo="1" devices="tripinfo_439 routing_439" vType="DEFAULT_VEHTYPE" speedFactor="0.87" vaporized=""/>
    <tripinfo id="1093" depart="162.00" departLane="19354566#0_1" departPos="5.10" departSpeed="10.68" departDelay="-0.36" arrival="481.00" arrivalLane="19355310#3_1" arrivalPos="61.71" arrivalSpeed="10.50" duration="319.00" routeLength="2088.72" waitingTime="68.00" waitingCount="7" stopTime="0.00" timeLoss="120.50" rerouteNo="1" devices="tripinfo_1093 routing_1093" vType="DEFAULT_VEHTYPE" speedFactor="0.96" vaporized=""/>
    <tripinfo id="475" depart="111.00" departLane="-19359987_0" departPos="5.10" departSpeed="11.37" departDelay="-0.22" arrival="482.00" arrivalLane="19353591#1_1" arrivalPos="54.41" arrivalSpeed="10.57" duration="371.00" routeLength="3296.98" waitingTime="25.00" waitingCount="6" stopTime="0.00" timeLoss="78.84" rerouteNo="1" devices="tripinfo_475 routing_475" vType="DEFAULT_VEHTYPE" speedFactor="1.02" vaporized=""/>
    <tripinfo id="1382" depart="166.00" departLane="19358005#4_0" departPos="0.28" departSpeed="0.00" departDelay="-0.43" arrival="485.00" arrivalLane="-586093472#0_1" arrivalPos="60.20" arrivalSpeed="11.33" duration="319.00" routeLength="3409.03" waitingTime="4.00" waitingCount="4" stopTime="0.00" timeLoss="69.71" rerouteNo="1" devices="tripinfo_1382 routing_1382" vType="DEFAULT_VEHTYPE" speedFactor="1.03" vaporized=""/>
    <tripinfo id="1372" depart="174.00" departLane="19358005#2_0" departPos="5.10" departSpeed="11.16" departDelay="-0.65" arrival="485.00" arrivalLane="19357397#3_1" arrivalPos="90.05" arrivalSpeed="11.07" duration="311.00" routeLength="3155.05" waitingTime="5.00" waitingCount="5" stopTime="0.00" timeLoss="75.72" rerouteNo="1" devices="tripinfo_1372 routing_1372" vType="DEFAULT_VEHTYPE" speedFactor="1.00" vaporized=""/>
    <tripinfo id="168" depart="271.00" departLane="511366397_0" departPos="5.10" departSpeed="5.62" departDelay="-0.01" arrival="496.00" arrivalLane="19354956#0_1" arrivalPos="36.97" arrivalSpeed="11.16" duration="225.00" routeLength="1670.83" waitingTime="29.00" waitingCount="4" stopTime="0.00" timeLoss="68.34" rerouteNo="1" devices="tripinfo_168 routing_168" vType="DEFAULT_VEHTYPE" speedFactor="1.01" vaporized=""/>
    <tripinfo id="1176" depart="30.00" departLane="19360535#1_0" departPos="5.10" departSpeed="12.55" departDelay="-0.47" arrival="503.00" arrivalLane="19352871#0_0" arrivalPos="39.46" arrivalSpeed="12.35" duration="473.00" routeLength="4583.59" waitingTime="66.00" waitingCount="4" stopTime="0.00" timeLoss="151.04" rerouteNo="1" devices="tripinfo_1176 routing_1176" vType="DEFAULT_VEHTYPE" speedFactor="1.12" vaporized=""/>
    <tripinfo id="1132" depart="21.00" departLane="-19359450_0" departPos="5.10" departSpeed="9.58" departDelay="-0.35" arrival="511.00" arrivalLane="19358440_1" arrivalPos="162.68" arrivalSpeed="9.40" duration="490.00" routeLength="3420.41" waitingTime="67.00" waitingCount="6" stopTime="0.00" timeLoss="128.87" rerouteNo="1" devices="tripinfo_1132 routing_1132" vType="DEFAULT_VEHTYPE" speedFactor="0.86" vaporized=""/>