<?xml version="1.0" encoding="UTF-8"?>

<!-- generated on 4/16/2021 7:12:49 AM by Eclipse SUMO GUI Version 1.9.0
<configuration xmlns:xsi="http://www.w3.org/2001/XMLSchema-instance" xsi:noNamespaceSchemaLocation="http://sumo.dlr.de/xsd/sumoConfiguration.xsd">

    <input>
        <net-file value="../../aquidneck_island.net.xml"/>
        <route-files value="baseline_sim_trips.xml"/>
    </input>

    <output>
        <tripinfo-output value="output/baseline_tripinfo.xml"/>
    </output>

    <report>
        <error-log value="simulation_errors.txt"/>
    </report>

</configuration>
-->

<tripinfos xmlns:xsi="http://www.w3.org/2001/XMLSchema-instance" xsi:noNamespaceSchemaLocation="http://sumo.dlr.de/xsd/tripinfo_file.xsd">
    <tripinfo id="1595" depart="22.00" departLane="19356776#0_1" departPos="5.10" departSpeed="12.19" departDelay="0.24" arrival="118.00" arrivalLane="19356476_0" arrivalPos="91.49" arrivalSpeed="11.07" duration="96.00" routeLength="823.49" waitingTime="4.00" waitingCount="4" stopTime="0.00" timeLoss="25.92" rerouteNo="1" devices="tripinfo_1595 routing_1595" vType="DEFAULT_VEHTYPE" speedFactor="1.09" vaporized=""/>
    <tripinfo id="283" depart="3.00" departLane="19352058_0" departPos="5.10" departSpeed="10.49" departDelay="0.17" arrival="180.00" arrivalLane="19357114#3_0" arrivalPos="125.59" arrivalSpeed="10.37" duration="177.00" routeLength="1625.44" waitingTime="0.00" waitingCount="0" stopTime="0.00" timeLoss="18.56" rerouteNo="1" devices="tripinfo_283 routing_283" vType="DEFAULT_VEHTYPE" speedFactor="0.94" vaporized=""/>
    <tripinfo id="391" depart="24.00" departLane="511366397_0" departPos="5.10" departSpeed="5.82" departDelay="0.95" arrival="200.00" arrivalLane="329995330#4_1" arrivalPos="24.83" arrivalSpeed="11.61" duration="176.00" routeLength="1268.93" waitingTime="27.00" waitingCount="4" stopTime="0.00" timeLoss="57.99" rerouteNo="1" devices="tripinfo_391 routing_391" vType="DEFAULT_VEHTYPE" speedFactor="1.05" vaporized=""/>
    <tripinfo id="1553" depart="67.00" departLane="19352924#6_1" departPos="5.10" departSpeed="11.40" departDelay="0.27" arrival="214.00" arrivalLane="19355310#3_1" arrivalPos="61.71" arrivalSpeed="10.24" duration="147.00" routeLength="960.03" waitingTime="32.00" waitingCount="5" stopTime="0.00" timeLoss="61.58" rerouteNo="1" devices="tripinfo_1553 routing_1553" vType="DEFAULT_VEHTYPE" speedFactor="1.02" vaporized=""/>
    <tripinfo id="245" depart="12.00" departLane="19353318_0" departPos="5.10" departSpeed="12.10" departDelay="0.88" arrival="221.00" arrivalLane="-19353264#0_0" arrivalPos="85.96" arrivalSpeed="11.47" duration="209.00" routeLength="1987.74" waitingTime="8.00" waitingCount="2" stopTime="0.00" timeLoss="41.72" rerouteNo="1" devices="tripinfo_245 routing_245" vType="DEFAULT_VEHTYPE" speedFactor="1.08" vaporized=""/>
    <tripinfo id="1577" depart="15.00" departLane="-445937781#1_1" departPos="5.10" departSpeed="11.52" departDelay="0.93" arrival="221.00" arrivalLane="-19354349#0_1" arrivalPos="90.47" arrivalSpeed="11.30" duration="206.00" routeLength="1356.16" waitingTime="42.00" waitingCount="8" stopTime="0.00" timeLoss="85.21" rerouteNo="1" devices="tripinfo_1577 routing_1577" vType="DEFAULT_VEHTYPE" speedFactor="1.03" vaporized=""/>
    <tripinfo id="543" depart="55.00" departLane="-19359987_0" departPos="5.10" departSpeed="10.41" departDelay="0.53" arrival="221.00" arrivalLane="19357991#2_0" arrivalPos="170.35" arrivalSpeed="10.13" duration="166.00" routeLength="1440.62" waitingTime="2.00" waitingCount="2" stopTime="0.00" timeLoss="24.43" rerouteNo="1" devices="tripinfo_543 routing_543" vType="DEFAULT_VEHTYPE" speedFactor="0.93" vaporized=""/>
    <tripinfo id="519" depart="5.00" departLane="19355160#0_0" departPos="5.10" departSpeed="11.30" departDelay="0.23" arrival="234.00" arrivalLane="-19356452#2_0" arrivalPos="92.05" arrivalSpeed="10.89" duration="229.00" routeLength="2289.40" waitingTime="1.00" waitingCount="1" stopTime="0.00" timeLoss="23.66" rerouteNo="1" devices="tripinfo_519 routing_519" vType="DEFAULT_VEHTYPE" speedFactor="1.01" vaporized=""/>
    <tripinfo id="399" depart="107.00" departLane="-511366397_0" departPos="5.10" departSpeed="5.58" departDelay="0.06" arrival="250.00" arrivalLane="19353333#2_1" arrivalPos="50.87" arrivalSpeed="10.92" duration="143.00" routeLength="884.19" waitingTime="24.00" waitingCount="3" stopTime="0.00" timeLoss="48.47" rerouteNo="1" devices="tripinfo_399 routing_399" vType="DEFAULT_VEHTYPE" speedFactor="1.00" vaporized=""/>
    <tripinfo id="571" depart="47.00" departLane="19357539#1_0" departPos="5.10" departSpeed="9.95" departDelay="0.10" arrival="258.00" arrivalLane="19357114#3_0" arrivalPos="125.59" arrivalSpeed="9.13" duration="211.00" routeLength="1833.94" waitingTime="0.00" waitingCount="0" stopTime="0.00" timeLoss="22.10" rerouteNo="1" devices="tripinfo_571 routing_571" vType="DEFAULT_VEHTYPE" speedFactor="0.89" vaporized=""/>
    <tripinfo id="88" depart="17.00" departLane="-19352058_0" departPos="5.10" departSpeed="11.69" departDelay="0.28" arrival="271.00" arrivalLane="19357539#1_0" arrivalPos="239.69" arrivalSpeed="11.52" duration="254.00" routeLength="2601.41" waitingTime="1.00" waitingCount="1" stopTime="0.00" timeLoss="29.41" rerouteNo="1" devices="tripinfo_88 routing_88" vType="DEFAULT_VEHTYPE" speedFactor="1.05" vaporized=""/>
    <tripinfo id="551" depart="77.00" departLane="-19356025#1_1" departPos="5.10" departSpeed="11.52" departDelay="0.24" arrival="279.00" arrivalLane="-440717074#4_1" arrivalPos="101.99" arrivalSpeed="10.83" duration="202.00" routeLength="1667.20" waitingTime="33.00" waitingCount="2" stopTime="0.00" timeLoss="56.33" rerouteNo="1" devices="tripinfo_551 routing_551" vType="DEFAULT_VEHTYPE" speedFactor="1.03" vaporized=""/>
    <tripinfo id="508" depart="106.00" departLane="576756561#0_0" departPos="5.10" departSpeed="11.37" departDelay="0.82" arrival="280.00" arrivalLane="19352131#9_1" arrivalPos="48.41" arrivalSpeed="11.04" duration="174.00" routeLength="1690.88" waitingTime="0.00" waitingCount="0" stopTime="0.00" timeLoss="21.90" rerouteNo="1" devices="tripinfo_508 routing_508" vType="DEFAULT_VEHTYPE" speedFactor="1.02" vaporized=""/>
    <tripinfo id="597" depart="71.00" departLane="19352037_1" departPos="5.10" departSpeed="10.88" departDelay="0.28" arrival="286.00" arrivalLane="-19352131#5_1" arrivalPos="49.62" arrivalSpeed="10.36" duration="215.00" routeLength="2097.51" waitingTime="0.00" waitingCount="0" stopTime="0.00" timeLoss="19.30" rerouteNo="1" devices="tripinfo_597 routing_597" vType="DEFAULT_VEHTYPE" speedFactor="0.97" vaporized=""/>
    <tripinfo id="526" depart="38.00" departLane="19359987_0" departPos="5.10" departSpeed="11.38" departDelay="0.30" arrival="293.00" arrivalLane="19353264#3_0" arrivalPos="46.83" arrivalSpeed="10.59" duration="255.00" routeLength="2129.78" waitingTime="30.00" waitingCount="3" stopTime="0.00" timeLoss="65.31" rerouteNo="1" devices="tripinfo_526 routing_526" vType="DEFAULT_VEHTYPE" speedFactor="1.02" vaporized=""/>
    <tripinfo id="567" depart="168.00" departLane="-19352037_0" departPos="5.10" departSpeed="11.37" departDelay="0.24" arrival="294.00" arrivalLane="19357991#1_0" arrivalPos="101.31" arrivalSpeed="11.07" duration="126.00" routeLength="1195.54" waitingTime="2.00" waitingCount="2" stopTime="0.00" timeLoss="19.47" rerouteNo="1" devices="tripinfo_567 routing_567" vType="DEFAULT_VEHTYPE" speedFactor="1.02" vaporized=""/>
    <tripinfo id="1424" depart="25.00" departLane="-445937781#0_1" departPos="5.10" departSpeed="11.08" departDelay="0.56" arrival="301.00" arrivalLane="19359517#2_1" arrivalPos="129.57" arrivalSpeed="10.03" duration="276.00" routeLength="2093.06" waitingTime="11.00" waitingCount="11" stopTime="0.00" timeLoss="82.87" rerouteNo="1" devices="tripinfo_1424 routing_1424" vType="DEFAULT_VEHTYPE" speedFactor="0.99" vaporized=""/>
    <tripinfo id="1393" depart="23.00" departLane="19356055#5_0" departPos="5.10" departSpeed="5.13" departDelay="0.18" arrival="303.00" arrivalLane="19354437#0_1" arrivalPos="62.94" arrivalSpeed="11.21" duration="280.00" routeLength="3001.05" waitingTime="7.00" waitingCount="7" stopTime="0.00" timeLoss="63.76" rerouteNo="1" devices="tripinfo_1393 routing_1393" vType="DEFAULT_VEHTYPE" speedFactor="1.03" vaporized=""/>
    <tripinfo id="1442" depart="52.00" departLane="-570941862#4_1" departPos="5.10" departSpeed="10.25" departDelay="0.67" arrival="305.00" arrivalLane="329995277#1_1" arrivalPos="79.99" arrivalSpeed="9.08" duration="253.00" routeLength="1426.81" waitingTime="72.00" waitingCount="6" stopTime="0.00" timeLoss="111.22" rerouteNo="1" devices="tripinfo_1442 routing_1442" vType="DEFAULT_VEHTYPE" speedFactor="0.92" vaporized=""/>
    <tripinfo id="367" depart="108.00" departLane="-19358499#1_1" departPos="5.10" departSpeed="11.14" departDelay="0.07" arrival="307.00" arrivalLane="19357839_0" arrivalPos="87.22" arrivalSpeed="10.47" duration="199.00" routeLength="1531.70" waitingTime="27.00" waitingCount="3" stopTime="0.00" timeLoss="58.45" rerouteNo="1" devices="tripinfo_367 routing_367" vType="DEFAULT_VEHTYPE" speedFactor="1.00" vaporized=""/>
    <tripinfo id="198" depart="37.00" departLane="-19352058_0" departPos="5.10" departSpeed="12.95" departDelay="0.14" arrival="310.00" arrivalLane="19354574#0_0" arrivalPos="54.99" arrivalSpeed="12.45" duration="273.00" routeLength="2705.81" waitingTime="7.00" waitingCount="5" stopTime="0.00" timeLoss="61.29" rerouteNo="1" devices="tripinfo_198 routing_198" vType="DEFAULT_VEHTYPE" speedFactor="1.16" vaporized=""/>
    <tripinfo id="1073" depart="73.00" departLane="-19358357_1" departPos="5.10" departSpeed="13.19" departDelay="0.14" arrival="312.00" arrivalLane="-19351996#0_0" arrivalPos="86.47" arrivalSpeed="12.79" duration="239.00" routeLength="2085.09" waitingTime="34.00" waitingCount="4" stopTime="0.00" timeLoss="78.00" rerouteNo="1" devices="tripinfo_1073 routing_1073" vType="DEFAULT_VEHTYPE" speedFactor="1.18" vaporized=""/>
    <tripinfo id="647" depart="146.00" departLane="19358136#4_0" departPos="5.10" departSpeed="11.44" departDelay="0.14" arrival="313.00" arrivalLane="-329995277#2_1" arrivalPos="69.27" arrivalSpeed="10.79" duration="167.00" routeLength="1295.28" waitingTime="8.00" waitingCount="8" stopTime="0.00" timeLoss="50.63" rerouteNo="1" devices="tripinfo_647 routing_647" vType="DEFAULT_VEHTYPE" speedFactor="1.02" vaporized=""/>
    <tripinfo id="1426" depart="60.00" departLane="445937781#3_0" departPos="5.10" departSpeed="13.10" departDelay="0.15" arrival="324.00" arrivalLane="19358038#2_1" arrivalPos="92.21" arrivalSpeed="12.04" duration="264.00" routeLength="2364.40" waitingTime="24.00" waitingCount="5" stopTime="0.00" timeLoss="79.65" rerouteNo="1" devices="tripinfo_1426 routing_1426" vType="DEFAULT_VEHTYPE" speedFactor="1.17" vaporized=""/>
    <tripinfo id="1510" depart="129.00" departLane="19354915#1_0" departPos="5.10" departSpeed="10.14" departDelay="0.39" arrival="327.00" arrivalLane="-19356562#3_0" arrivalPos="92.48" arrivalSpeed="10.10" duration="198.00" routeLength="1367.97" waitingTime="22.00" waitingCount="5" stopTime="0.00" timeLoss="60.40" rerouteNo="1" devices="tripinfo_1510 routing_1510" vType="DEFAULT_VEHTYPE" speedFactor="0.91" vaporized=""/>
    <tripinfo id="223" depart="102.00" departLane="-19352058_0" departPos="5.10" departSpeed="9.80" departDelay="0.57" arrival="330.00" arrivalLane="-19357991#1_0" arrivalPos="101.66" arrivalSpeed="8.57" duration="228.00" routeLength="1669.21" waitingTime="29.00" waitingCount="2" stopTime="0.00" timeLoss="55.67" rerouteNo="1" devices="tripinfo_223 routing_223" vType="DEFAULT_VEHTYPE" speedFactor="0.88" vaporized=""/>
    <tripinfo id="565" depart="154.00" departLane="19359987_0" departPos="5.10" departSpeed="11.01" departDelay="0.38" arrival="335.00" arrivalLane="-19354933_0" arrivalPos="349.65" arrivalSpeed="10.25" duration="181.00" routeLength="1580.69" waitingTime="6.00" waitingCount="3" stopTime="0.00" timeLoss="34.96" rerouteNo="1" devices="tripinfo_565 routing_565" vType="DEFAULT_VEHTYPE" speedFactor="0.98" vaporized=""/>
    <tripinfo id="649" depart="160.00" departLane="-19360850#0_0" departPos="5.10" departSpeed="11.57" departDelay="0.46" arrival="340.00" arrivalLane="19359517#0_1" arrivalPos="194.68" arrivalSpeed="10.57" duration="180.00" routeLength="1609.99" waitingTime="5.00" waitingCount="5" stopTime="0.00" timeLoss="38.96" rerouteNo="1" devices="tripinfo_649 routing_649" vType="DEFAULT_VEHTYPE" speedFactor="1.03" vaporized=""/>
    <tripinfo id="618" depart="279.00" departLane="-19352285#7_1" departPos="5.10" departSpeed="11.22" departDelay="0.56" arrival="354.00" arrivalLane="19354745#1_1" arrivalPos="5.01" arrivalSpeed="10.72" duration="75.00" routeLength="676.05" waitingTime="2.00" waitingCount="2" stopTime="0.00" timeLoss="14.43" rerouteNo="1" devices="tripinfo_618 routing_618" vType="DEFAULT_VEHTYPE" speedFactor="1.00" vaporized=""/>
    <tripinfo id="370" depart="115.00" departLane="19352058_0" departPos="5.10" departSpeed="12.51" departDelay="0.11" arrival="355.00" arrivalLane="329995330#6_1" arrivalPos="32.22" arrivalSpeed="12.43" duration="240.00" routeLength="2159.17" waitingTime="7.00" waitingCount="6" stopTime="0.00" timeLoss="63.64" rerouteNo="1" devices="tripinfo_370 routing_370" vType="DEFAULT_VEHTYPE" speedFactor="1.12" vaporized=""/>
    <tripinfo id="111" depart="82.00" departLane="-511366397_0" departPos="5.10" departSpeed="6.07" departDelay="0.37" arrival="358.00" arrivalLane="-19361189#2_0" arrivalPos="49.18" arrivalSpeed="11.34" duration="276.00" routeLength="2129.99" waitingTime="28.00" waitingCount="7" stopTime="0.00" timeLoss="86.01" rerouteNo="1" devices="tripinfo_111 routing_111" vType="DEFAULT_VEHTYPE" speedFactor="1.09" vaporized=""/>
    <tripinfo id="1572" depart="147.00" departLane="19356778_1" departPos="5.10" departSpeed="10.88" departDelay="0.57" arrival="359.00" arrivalLane="19358153#1_0" arrivalPos="56.58" arrivalSpeed="10.86" duration="212.00" routeLength="1719.87" waitingTime="8.00" waitingCount="6" stopTime="0.00" timeLoss="51.96" rerouteNo="1" devices="tripinfo_1572 routing_1572" vType="DEFAULT_VEHTYPE" speedFactor="0.97" vaporized=""/>
    <tripinfo id="1323" depart="56.00" departLane="-586093487#1_1" departPos="5.10" departSpeed="13.18" departDelay="0.61" arrival="375.00" arrivalLane="19361255#6_1" arrivalPos="57.31" arrivalSpeed="12.32" duration="319.00" routeLength="3244.50" waitingTime="38.00" waitingCount="8" stopTime="0.00" timeLoss="110.56" rerouteNo="1" devices="tripinfo_1323 routing_1323" vType="DEFAULT_VEHTYPE" speedFactor="1.18" vaporized=""/>
    <tripinfo id="1141" depart="24.00" departLane="19354242#0_1" departPos="5.10" departSpeed="12.55" departDelay="0.11" arrival="378.00" arrivalLane="19359246_1" arrivalPos="178.93" arrivalSpeed="11.98" duration="354.00" routeLength="3091.53" waitingTime="21.00" waitingCount="9" stopTime="0.00" timeLoss="105.61" rerouteNo="1" devices="tripinfo_1141 routing_1141" vType="DEFAULT_VEHTYPE" speedFactor="1.12" vaporized=""/>
    <tripinfo id="699" depart="260.00" departLane="-19354572#0_1" departPos="5.10" departSpeed="12.50" departDelay="0.01" arrival="380.00" arrivalLane="-19356382#34_1" arrivalPos="51.22" arrivalSpeed="11.63" duration="120.00" routeLength="1008.73" waitingTime="5.00" waitingCount="5" stopTime="0.00" timeLoss="37.71" rerouteNo="1" devices="tripinfo_699 routing_699" vType="DEFAULT_VEHTYPE" speedFactor="1.12" vaporized=""/>
    <tripinfo id="587" depart="74.00" departLane="-661061477#0_0" departPos="5.10" departSpeed="12.32" departDelay="0.02" arrival="386.00" arrivalLane="19353264#0_0" arrivalPos="85.96" arrivalSpeed="12.00" duration="312.00" routeLength="2832.87" waitingTime="41.00" waitingCount="4" stopTime="0.00" timeLoss="79.67" rerouteNo="1" devices="tripinfo_587 routing_587" vType="DEFAULT_VEHTYPE" speedFactor="1.10" vaporized=""/>
    <tripinfo id="1412" depart="45.00" departLane="203954132#0_0" departPos="5.10" departSpeed="10.90" departDelay="0.01" arrival="390.00" arrivalLane="-661061474#0_1" arrivalPos="197.72" arrivalSpeed="10.82" duration="345.00" routeLength="2364.13" waitingTime="55.00" waitingCount="10" stopTime="0.00" timeLoss="122.54" rerouteNo="1" devices="tripinfo_1412 routing_1412" vType="DEFAULT_VEHTYPE" speedFactor="0.98" vaporized=""/>
    <tripinfo id="1380" depart="101.00" departLane="-346959934#3_0" departPos="5.10" departSpeed="10.07" departDelay="0.73" arrival="393.00" arrivalLane="203954132#0_0" arrivalPos="51.84" arrivalSpeed="8.90" duration="292.00" routeLength="2735.48" waitingTime="27.00" waitingCount="4" stopTime="0.00" timeLoss="71.38" rerouteNo="1" devices="tripinfo_1380 routing_1380" vType="DEFAULT_VEHTYPE" speedFactor="0.90" vaporized=""/>
    <tripinfo id="1333" depart="109.00" departLane="346959935#2_0" departPos="5.10" departSpeed="12.77" departDelay="0.24" arrival="395.00" arrivalLane="19361255#9_0" arrivalPos="58.83" arrivalSpeed="12.58" duration="286.00" routeLength="2752.53" waitingTime="20.00" waitingCount="6" stopTime="0.00" timeLoss="111.22" rerouteNo="1" devices="tripinfo_1333 routing_1333" vType="DEFAULT_VEHTYPE" speedFactor="1.14" vaporized=""/>
    <tripinfo id="1048" depart="60.00" departLane="19360028_0" departPos="5.10" departSpeed="11.24" departDelay="0.93" arrival="396.00" arrivalLane="-19360459#2_1" arrivalPos="45.23" arrivalSpeed="11.01" duration="336.00" routeLength="2985.48" waitingTime="10.00" waitingCount="7" stopTime="0.00" timeLoss="67.76" rerouteNo="1" devices="tripinfo_1048 routing_1048" vType="DEFAULT_VEHTYPE" speedFactor="1.01" vaporized=""/>
    <tripinfo id="503" depart="201.00" departLane="19359987_0" departPos="5.10" departSpeed="10.13" departDelay="0.57" arrival="405.00" arrivalLane="-19352131#10_1" arrivalPos="34.15" arrivalSpeed="9.41" duration="204.00" routeLength="1356.67" waitingTime="41.00" waitingCount="3" stopTime="0.00" timeLoss="68.09" rerouteNo="1" devices="tripinfo_503 routing_503" vType="DEFAULT_VEHTYPE" speedFactor="0.91" vaporized=""/>
    <tripinfo id="1347" depart="17.00" departLane="-19356055#5_0" departPos="5.10" departSpeed="4.16" departDelay="0.92" arrival="407.00" arrivalLane="19354435#6_1" arrivalPos="57.97" arrivalSpeed="8.93" duration="390.00" routeLength="3092.65" waitingTime="28.00" waitingCount="7" stopTime="0.00" timeLoss="100.11" rerouteNo="1" devices="tripinfo_1347 routing_1347" vType="DEFAULT_VEHTYPE" speedFactor="0.83" vaporized=""/>
    <tripinfo id="1316" depart="53.00" departLane="-19356055#4_0" departPos="5.10" departSpeed="4.74" departDelay="0.51" arrival="409.00" arrivalLane="570942394#4_1" arrivalPos="90.12" arrivalSpeed="9.66" duration="356.00" routeLength="3173.61" waitingTime="28.00" waitingCount="5" stopTime="0.00" timeLoss="91.43" rerouteNo="1" devices="tripinfo_1316 routing_1316" vType="DEFAULT_VEHTYPE" speedFactor="0.95" vaporized=""/>
    <tripinfo id="654" depart="303.00" departLane="-19353591#1_1" departPos="5.10" departSpeed="11.63" departDelay="0.08" arrival="411.00" arrivalLane="661061473#0_1" arrivalPos="18.95" arrivalSpeed="11.43" duration="108.00" routeLength="970.30" waitingTime="3.00" waitingCount="3" stopTime="0.00" timeLoss="22.98" rerouteNo="1" devices="tripinfo_654 routing_654" vType="DEFAULT_VEHTYPE" speedFactor="1.04" vaporized=""/>
    <tripinfo id="9" depart="19.00" departLane="-19352058_0" departPos="5.10" departSpeed="9.91" departDelay="0.61" arrival="415.00" arrivalLane="-19356025#1_1" arrivalPos="443.41" arrivalSpeed="9.89" duration="396.00" routeLength="3160.94" waitingTime="37.00" waitingCount="2" stopTime="0.00" timeLoss="73.98" rerouteNo="1" devices="tripinfo_9 routing_9" vType="DEFAULT_VEHTYPE" speedFactor="0.89" vaporized=""/>
    <tripinfo id="63" depart="1.00" departLane="-19358499#1_1" departPos="5.10" departSpeed="11.85" departDelay="0.21" arrival="420.00" arrivalLane="19352037_1" arrivalPos="418.51" arrivalSpeed="11.80" duration="419.00" routeLength="3135.74" waitingTime="105.00" waitingCount="6" stopTime="0.00" timeLoss="154.88" rerouteNo="1" devices="tripinfo_63 routing_63" vType="DEFAULT_VEHTYPE" speedFactor="1.06" vaporized=""/>
    <tripinfo id="1363" depart="95.00" departLane="19360523#5_0" departPos="0.20" departSpeed="0.00" departDelay="0.84" arrival="421.00" arrivalLane="-19359702_0" arrivalPos="92.52" arrivalSpeed="12.14" duration="326.00" routeLength="3037.23" waitingTime="39.00" waitingCount="7" stopTime="0.00" timeLoss="119.46" rerouteNo="1" devices="tripinfo_1363 routing_1363" vType="DEFAULT_VEHTYPE" speedFactor="1.09" vaporized=""/>
    <tripinfo id="546" depart="154.00" departLane="-19355160#0_0" departPos="5.10" departSpeed="10.68" departDelay="0.72" arrival="424.00" arrivalLane="19354328_1" arrivalPos="146.51" arrivalSpeed="10.39" duration="270.00" routeLength="2047.59" waitingTime="46.00" waitingCount="3" stopTime="0.00" timeLoss="76.03" rerouteNo="1" devices="tripinfo_546 routing_546" vType="DEFAULT_VEHTYPE" speedFactor="0.96" vaporized=""/>
    <tripinfo id="1286" depart="37.00" departLane="-19360523#1_0" departPos="5.10" departSpeed="10.47" departDelay="0.65" arrival="428.00" arrivalLane="-19353686#6_1" arrivalPos="17.13" arrivalSpeed="9.82" duration="391.00" routeLength="3385.08" waitingTime="24.00" waitingCount="4" stopTime="0.00" timeLoss="66.33" rerouteNo="1" devices="tripinfo_1286 routing_1286" vType="DEFAULT_VEHTYPE" speedFactor="0.94" vaporized=""/>
    <tripinfo id="1586" depart="218.00" departLane="-19361255#6_1" departPos="5.10" departSpeed="11.99" departDelay="0.78" arrival="429.00" arrivalLane="-288107045#4_1" arrivalPos="60.23" arrivalSpeed="10.89" duration="211.00" routeLength="1364.75" waitingTime="51.00" waitingCount="8" stopTime="0.00" timeLoss="94.05" rerouteNo="1" devices="tripinfo_1586 routing_1586" vType="DEFAULT_VEHTYPE" speedFactor="1.07" vaporized=""/>
    <tripinfo id="1241" depart="50.00" departLane="19356055#4_0" departPos="5.10" departSpeed="4.36" departDelay="0.95" arrival="432.00" arrivalLane="19357704#0_1" arrivalPos="107.35" arrivalSpeed="9.17" duration="382.00" routeLength="2783.94" waitingTime="15.00" waitingCount="10" stopTime="0.00" timeLoss="87.95" rerouteNo="1" devices="tripinfo_1241 routing_1241" vType="DEFAULT_VEHTYPE" speedFactor="0.87" vaporized=""/>
    <tripinfo id="1411" depart="159.00" departLane="19360493_0" departPos="5.10" departSpeed="12.15" departDelay="0.77" arrival="433.00" arrivalLane="19352285#4_1" arrivalPos="73.17" arrivalSpeed="11.49" duration="274.00" routeLength="1998.55" waitingTime="54.00" waitingCount="7" stopTime="0.00" timeLoss="105.63" rerouteNo="1" devices="tripinfo_1411 routing_1411" vType="DEFAULT_VEHTYPE" speedFactor="1.09" vaporized=""/>
    <tripinfo id="694" depart="109.00" departLane="-19358928_0" departPos="5.10" departSpeed="10.05" departDelay="0.75" arrival="437.00" arrivalLane="19354792#0_1" arrivalPos="69.36" arrivalSpeed="9.18" duration="328.00" routeLength="2720.27" waitingTime="10.00" waitingCount="4" stopTime="0.00" timeLoss="53.90" rerouteNo="1" devices="tripinfo_694 routing_694" vType="DEFAULT_VEHTYPE" speedFactor="0.90" vaporized=""/>
    <tripinfo id="661" depart="307.00" departLane="-19354956#1_1" departPos="5.10" departSpeed="11.98" departDelay="0.70" arrival="438.00" arrivalLane="661061473#1_1" arrivalPos="17.50" arrivalSpeed="10.96" duration="131.00" routeLength="1150.97" waitingTime="11.00" waitingCount="2" stopTime="0.00" timeLoss="34.08" rerouteNo="1" devices="tripinfo_661 routing_661" vType="DEFAULT_VEHTYPE" speedFactor="1.07" vaporized=""/>
    <tripinfo id="1458" depart="169.00" departLane="-19356776#0_1" departPos="5.10" departSpeed="10.81" departDelay="0.31" arrival="440.00" arrivalLane="19359517#1_1" arrivalPos="95.38" arrivalSpeed="9.79" duration="271.00" routeLength="1952.64" waitingTime="50.00" waitingCount="5" stopTime="0.00" timeLoss="86.75" rerouteNo="1" devices="tripinfo_1458 routing_1458" vType="DEFAULT_VEHTYPE" speedFactor="0.97" vaporized=""/>
    <tripinfo id="142" depart="40.00" departLane="19355636_0" departPos="5.10" departSpeed="11.29" departDelay="0.97" arrival="442.00" arrivalLane="-19358927#4_0" arrivalPos="71.23" arrivalSpeed="10.93" duration="402.00" routeLength="3421.25" waitingTime="32.00" waitingCount="7" stopTime="0.00" timeLoss="95.07" rerouteNo="1" devices="tripinfo_142 routing_142" vType="DEFAULT_VEHTYPE" speedFactor="1.01" vaporized=""/>
    <tripinfo id="318" depart="151.00" departLane="511366397_0" departPos="5.10" departSpeed="5.87" departDelay="0.60" arrival="442.00" arrivalLane="-329995330#8_1" arrivalPos="24.23" arrivalSpeed="10.64" duration="291.00" routeLength="1633.45" waitingTime="94.00" waitingCount="7" stopTime="0.00" timeLoss="140.46" rerouteNo="1" devices="tripinfo_318 routing_318" vType="DEFAULT_VEHTYPE" speedFactor="1.06" vaporized=""/>
    <tripinfo id="534" depart="241.00" departLane="19357539#1_0" departPos="5.10" departSpeed="10.53" departDelay="0.21" arrival="446.00" arrivalLane="-19357968_0" arrivalPos="129.14" arrivalSpeed="10.10" duration="205.00" routeLength="1921.60" waitingTime="0.00" waitingCount="0" stopTime="0.00" timeLoss="18.99" rerouteNo="1" devices="tripinfo_534 routing_534" vType="DEFAULT_VEHTYPE" speedFactor="0.94" vaporized=""/>
    <tripinfo id="871" depart="109.00" departLane="-19354328_1" departPos="5.10" departSpeed="11.44" departDelay="0.14" arrival="447.00" arrivalLane="-570941862#5_1" arrivalPos="89.73" arrivalSpeed="10.80" duration="338.00" routeLength="2151.28" waitingTime="85.00" waitingCount="9" stopTime="0.00" timeLoss="145.39" rerouteNo="1" devices="tripinfo_871 routing_871" vType="DEFAULT_VEHTYPE" speedFactor="1.02" vaporized=""/>
    <tripinfo id="378" depart="188.00" departLane="19353318_0" departPos="5.10" departSpeed="12.20" departDelay="0.47" arrival="452.00" arrivalLane="-329995330#5_1" arrivalPos="34.75" arrivalSpeed="11.72" duration="264.00" routeLength="2469.58" waitingTime="5.00" waitingCount="5" stopTime="0.00" timeLoss="57.23" rerouteNo="1" devices="tripinfo_378 routing_378" vType="DEFAULT_VEHTYPE" speedFactor="1.09" vaporized=""/>
    <tripinfo id="827" depart="89.00" departLane="-19357114#3_0" departPos="5.10" departSpeed="11.60" departDelay="0.12" arrival="457.00" arrivalLane="-19361255#4_1" arrivalPos="56.71" arrivalSpeed="11.46" duration="368.00" routeLength="2823.33" waitingTime="59.00" waitingCount="9" stopTime="0.00" timeLoss="122.16" rerouteNo="1" devices="tripinfo_827 routing_827" vType="DEFAULT_VEHTYPE" speedFactor="1.04" vaporized=""/>
    <tripinfo id="1151" depart="64.00" departLane="329995324#1_1" departPos="5.10" departSpeed="11.12" departDelay="0.82" arrival="459.00" arrivalLane="71468899_1" arrivalPos="132.55" arrivalSpeed="10.45" duration="395.00" routeLength="2912.51" waitingTime="61.00" waitingCount="10" stopTime="0.00" timeLoss="129.56" rerouteNo="1" devices="tripinfo_1151 routing_1151" vType="DEFAULT_VEHTYPE" speedFactor="0.99" vaporized=""/>
    <tripinfo id="609" depart="285.00" departLane="-19357988_0" departPos="5.10" departSpeed="10.47" departDelay="0.82" arrival="460.00" arrivalLane="-19356382#35_1" arrivalPos="4.71" arrivalSpeed="10.17" duration="175.00" routeLength="1389.81" waitingTime="6.00" waitingCount="5" stopTime="0.00" timeLoss="38.67" rerouteNo="1" devices="tripinfo_609 routing_609" vType="DEFAULT_VEHTYPE" speedFactor="0.94" vaporized=""/>
    <tripinfo id="1456" depart="218.00" departLane="-19355169#1_0" departPos="5.10" departSpeed="11.34" departDelay="0.12" arrival="463.00" arrivalLane="-19357385#0_1" arrivalPos="60.35" arrivalSpeed="11.20" duration="245.00" routeLength="1724.41" waitingTime="46.00" waitingCount="4" stopTime="0.00" timeLoss="89.06" rerouteNo="1" devices="tripinfo_1456 routing_1456" vType="DEFAULT_VEHTYPE" speedFactor="1.01" vaporized=""/>
    <tripinfo id="333" depart="209.00" departLane="19353318_0" departPos="5.10" departSpeed="11.91" departDelay="0.96" arrival="464.00" arrivalLane="19355585#0_0" arrivalPos="41.14" arrivalSpeed="11.25" duration="255.00" routeLength="2081.11" waitingTime="18.00" waitingCount="6" stopTime="0.00" timeLoss="75.31" rerouteNo="1" devices="tripinfo_333 routing_333" vType="DEFAULT_VEHTYPE" speedFactor="1.07" vaporized=""/>
    <tripinfo id="412" depart="20.00" departLane="-19355160#3_0" departPos="5.10" departSpeed="9.58" departDelay="0.39" arrival="466.00" arrivalLane="-19351857#5_0" arrivalPos="4.92" arrivalSpeed="9.30" duration="446.00" routeLength="3553.77" waitingTime="8.00" waitingCount="8" stopTime="0.00" timeLoss="71.75" rerouteNo="1" devices="tripinfo_412 routing_412" vType="DEFAULT_VEHTYPE" speedFactor="0.86" vaporized=""/>
    <tripinfo id="1251" depart="136.00" departLane="-19360810#5_0" departPos="5.10" departSpeed="4.57" departDelay="0.06" arrival="466.00" arrivalLane="19356382#34_1" arrivalPos="51.44" arrivalSpeed="9.86" duration="330.00" routeLength="2300.83" waitingTime="12.00" waitingCount="8" stopTime="0.00" timeLoss="73.28" rerouteNo="1" devices="tripinfo_1251 routing_1251" vType="DEFAULT_VEHTYPE" speedFactor="0.91" vaporized=""/>
    <tripinfo id="362" depart="227.00" departLane="-19358499#0_1" departPos="5.10" departSpeed="9.79" departDelay="2.93" arrival="468.00" arrivalLane="19351859#1_0" arrivalPos="58.06" arrivalSpeed="11.86" duration="241.00" routeLength="1123.51" waitingTime="101.00" waitingCount="6" stopTime="0.00" timeLoss="147.64" rerouteNo="1" devices="tripinfo_362 routing_362" vType="DEFAULT_VEHTYPE" speedFactor="1.10" vaporized=""/>
    <tripinfo id="264" depart="223.00" departLane="19355636_0" departPos="5.10" departSpeed="10.37" departDelay="0.64" arrival="472.00" arrivalLane="19352131#10_1" arrivalPos="34.15" arrivalSpeed="10.20" duration="249.00" routeLength="2052.95" waitingTime="11.00" waitingCount="2" stopTime="0.00" timeLoss="47.49" rerouteNo="1" devices="tripinfo_264 routing_264" vType="DEFAULT_VEHTYPE" speedFactor="0.93" vaporized=""/>